----- GAMESS execution script 'rungms' -----
This job is running on host chemcompute-node-0.novalocal
under operating system Linux at Sat Nov 13 21:46:29 UTC 2021
SLURM has assigned the following compute nodes to this run:
chemcompute-node-0
Available scratch disk space (Kbyte units) at beginning of the job is
Filesystem     1K-blocks     Used Available Use% Mounted on
/dev/sda1       62903276 17043072  45860204  28% /
GAMESS temporary binary files will be written to /scratch/306199
GAMESS supplementary output files will be written to /data/slurm/342101
Copying input file 342101.inp to your run's scratch directory...
The generated host list is
chemcompute-node-0.novalocal

 Distributed Data Interface kickoff program.
 Initiating 1 compute processes on 1 nodes to run the following command:
 /data/gamess-2019R1-ddi/gamess.00.x 342101 

          ******************************************************
          *         GAMESS VERSION = 30 JUN 2019 (R1)          *
          *             FROM IOWA STATE UNIVERSITY             *
          * M.W.SCHMIDT, K.K.BALDRIDGE, J.A.BOATZ, S.T.ELBERT, *
          *   M.S.GORDON, J.H.JENSEN, S.KOSEKI, N.MATSUNAGA,   *
          *          K.A.NGUYEN, S.J.SU, T.L.WINDUS,           *
          *       TOGETHER WITH M.DUPUIS, J.A.MONTGOMERY       *
          *         J.COMPUT.CHEM.  14, 1347-1363(1993)        *
          **************** 64 BIT LINUX VERSION ****************

  SINCE 1993, STUDENTS AND POSTDOCS WORKING AT IOWA STATE UNIVERSITY
  AND ALSO IN THEIR VARIOUS JOBS AFTER LEAVING ISU HAVE MADE IMPORTANT
  CONTRIBUTIONS TO THE CODE:
     IVANA ADAMOVIC, CHRISTINE AIKENS, YURI ALEXEEV, POOJA ARORA,
     ANDREY ASADCHEV, ROB BELL, PRADIPTA BANDYOPADHYAY, JONATHAN BENTZ,
     COLLEEN BERTONI, BRETT BODE, KURT BRORSEN, CALEB CARLIN, GALINA CHABAN,
     WEI CHEN, CHEOL HO CHOI, PAUL DAY, ALBERT DEFUSCO, NUWAN DESILVA,
     TIM DUDLEY, DMITRI FEDOROV, ALEX FINDLATER, GRAHAM FLETCHER, 
     MARK FREITAG, KURT GLAESEMANN, ANASTASIA GUNINA,
     DAN KEMP, GRANT MERRILL, NORIYUKI MINEZAWA, JONATHAN MULLIN,
     TAKESHI NAGATA, SEAN NEDD, HEATHER NETZLOFF, BOSILJKA NJEGIC, RYAN OLSON,
     MIKE PAK, BUU PHAM,
     SPENCER PRUITT, LUKE ROSKOP, JIM SHOEMAKER, LYUDMILA SLIPCHENKO,
     TONY SMITH, SAROM SOK LEANG, JIE SONG, TETSUYA TAKETSUGU, SIMON WEBB,
     PENG XU, SOOHAENG YOO, FEDERICO ZAHARIEV

  ADDITIONAL CODE HAS BEEN PROVIDED BY COLLABORATORS IN OTHER GROUPS:
     IOWA STATE UNIVERSITY:
          JOE IVANIC, AARON WEST, LAIMUTIS BYTAUTAS, KLAUS RUEDENBERG
     UNIVERSITY OF TOKYO: KIMIHIKO HIRAO, TAKAHITO NAKAJIMA,
          TAKAO TSUNEDA, MUNEAKI KAMIYA, SUSUMU YANAGISAWA,
          KIYOSHI YAGI, MAHITO CHIBA, SEIKEN TOKURA, NAOAKI KAWAKAMI
     UNIVERSITY OF AARHUS: FRANK JENSEN
     UNIVERSITY OF IOWA: VISVALDAS KAIRYS, HUI LI
     NATIONAL INST. OF STANDARDS AND TECHNOLOGY: WALT STEVENS, DAVID GARMER
     UNIVERSITY OF PISA: BENEDETTA MENNUCCI, JACOPO TOMASI
     UNIVERSITY OF MEMPHIS: HENRY KURTZ, PRAKASHAN KORAMBATH
     UNIVERSITY OF ALBERTA: TOBY ZENG, MARIUSZ KLOBUKOWSKI
     UNIVERSITY OF NEW ENGLAND: MARK SPACKMAN
     MIE UNIVERSITY: HIROAKI UMEDA
     NAT. INST. OF ADVANCED INDUSTRIAL SCIENCE AND TECHNOLOGY: KAZUO KITAURA
     MICHIGAN STATE UNIVERSITY:
          KAROL KOWALSKI, MARTA WLOCH, JEFFREY GOUR, JESSE LUTZ,
          WEI LI, JUN SHEN, J. EMILIANO DEUSTUA, PIOTR PIECUCH
     UNIVERSITY OF MINNESOTA:
          YINAN SHU
     UNIVERSITY OF SILESIA: MONIKA MUSIAL, STANISLAW KUCHARSKI
     FACULTES UNIVERSITAIRES NOTRE-DAME DE LA PAIX:
          OLIVIER QUINET, BENOIT CHAMPAGNE
     UNIVERSITY OF CALIFORNIA - SANTA BARBARA: BERNARD KIRTMAN
     INSTITUTE FOR MOLECULAR SCIENCE:
          KAZUYA ISHIMURA, MICHIO KATOUDA, AND SHIGERU NAGASE
     UNIVERSITY OF NOTRE DAME: ANNA POMOGAEVA, DAN CHIPMAN
     KYUSHU UNIVERSITY:
          HARUYUKI NAKANO,
          FENG LONG GU, JACEK KORCHOWIEC, MARCIN MAKOWSKI, AND YURIKO AOKI,
          HIROTOSHI MORI AND EISAKU MIYOSHI
     PENNSYLVANIA STATE UNIVERSITY:
          TZVETELIN IORDANOV, CHET SWALINA, JONATHAN SKONE,
          SHARON HAMMES-SCHIFFER
     WASEDA UNIVERSITY:
          MASATO KOBAYASHI, TOMOKO AKAMA, TSUGUKI TOUMA,
          TAKESHI YOSHIKAWA, YASUHIRO IKABATA, JUNJI SEINO,
          YUYA NAKAJIMA, HIROMI NAKAI
     NANJING UNIVERSITY: SHUHUA LI
     UNIVERSITY OF NEBRASKA:
          PEIFENG SU, DEJUN SI, NANDUN THELLAMUREGE, YALI WANG, HUI LI
     UNIVERSITY OF ZURICH: ROBERTO PEVERATI, KIM BALDRIDGE
     N. COPERNICUS UNIVERSITY AND JACKSON STATE UNIVERSITY:
          MARIA BARYSZ
     UNIVERSITY OF COPENHAGEN: Jimmy Kromann, CASPER STEINMANN
     TOKYO INSTITUTE OF TECHNOLOGY: HIROYA NAKATA
     NAGOYA UNIVERSITY: YOSHIO NISHIMOTO, STEPHAN IRLE
     MOSCOW STATE UNIVERSITY: VLADIMIR MIRONOV
     A.N.NESMEYANOV INSTITUTE OF ORGANOELEMENT COMPOUNDS OF RUSSIAN ACADEMY OF SCIENCES:
          IGOR S. GERASIMOV

 EXECUTION OF GAMESS BEGUN Sat Nov 13 21:46:29 2021

            ECHO OF THE FIRST FEW INPUT CARDS -
 INPUT CARD>!File created by the GAMESS Input Deck Generator Plugin for Avogadro            
 INPUT CARD> $BASIS GBASIS=STO NGAUSS=3 $END                                                
 INPUT CARD> $CONTRL SCFTYP=RHF RUNTYP=OPTIMIZE NZVAR=1 mult=1  ICHARG=0 $END               
 INPUT CARD> $STATPT hssend=.t. OPTTOL=0.0005 NSTEP=50 $END                                 
 INPUT CARD> $STATPT HESS=calc ihrep=5 $END                                                 
 INPUT CARD> $FORCE nvib=2 $END                                                             
 INPUT CARD> $ZMAT DLC=.t. auto=.t. nonvdw(1)=4,17,17,18,5,18 $END                          
 INPUT CARD> $ZMAT IFZMAT(1)=1,4,17,1,17,18,1,5,18 fvalue(1)=2.08,1.98,2.01 $END}           
 INPUT CARD>                                                                                
 INPUT CARD> $DATA                                                                          
 INPUT CARD>Title                                                                           
 INPUT CARD>C1                                                                              
 INPUT CARD>C     6.0    -0.77032     0.99510     0.17045                                   
 INPUT CARD>C     6.0    -1.26230    -0.14424    -0.72232                                   
 INPUT CARD>C     6.0    -0.51034    -1.33026    -0.14931                                   
 INPUT CARD>C     6.0     0.69352     0.61942     0.39186                                   
 INPUT CARD>C     6.0     0.83181    -0.69209     0.05418                                   
 INPUT CARD>C     6.0     2.14840    -1.32788    -0.30633                                   
 INPUT CARD>H     1.0    -1.32338     0.97310     1.13417                                   
 INPUT CARD>H     1.0    -0.91340     1.98380    -0.31467                                   
 INPUT CARD>H     1.0    -0.88177     0.03059    -1.75644                                   
 INPUT CARD>H     1.0    -2.36631    -0.25490    -0.76749                                   
 INPUT CARD>H     1.0    -0.50972    -2.23088    -0.79880                                   
 INPUT CARD>H     1.0    -0.95666    -1.58052     0.83939                                   
 INPUT CARD>H     1.0     1.56504     1.28275     0.22968                                   
 INPUT CARD>H     1.0     1.99235    -2.37739    -0.63189                                   
 INPUT CARD>H     1.0     2.83532    -1.32139     0.56537                                   
 INPUT CARD>H     1.0     2.61972    -0.76304    -1.13775                                   
 INPUT CARD>B     5.0     0.98959     0.73020     2.44688                                   
 INPUT CARD>H     1.0     1.00467    -1.19943     1.98923                                   
 INPUT CARD>H     1.0     0.08407     1.10706     3.10842                                   
 INPUT CARD>H     1.0     2.03681     1.22559     2.69351                                   
 INPUT CARD> $END                                                                           
    1000000 WORDS OF MEMORY AVAILABLE

     BASIS OPTIONS
     -------------
     GBASIS=STO          IGAUSS=       3      POLAR=NONE    
     NDFUNC=       0     NFFUNC=       0     DIFFSP=       F
     NPFUNC=       0      DIFFS=       F     BASNAM=        


     RUN TITLE
     ---------
 Title                                                                           

 THE POINT GROUP OF THE MOLECULE IS C1      
 THE ORDER OF THE PRINCIPAL AXIS IS     0

 ATOM      ATOMIC                      COORDINATES (BOHR)
           CHARGE         X                   Y                   Z
 C           6.0    -1.4556937229        1.8804663304        0.3221037946
 C           6.0    -2.3854011143       -0.2725740765       -1.3649868755
 C           6.0    -0.9644027606       -2.5138268924       -0.2821549872
 C           6.0     1.3105627670        1.1705340713        0.7405080255
 C           6.0     1.5718929738       -1.3078604588        0.1023853540
 C           6.0     4.0598873120       -2.5093293446       -0.5788797618
 H           1.0    -2.5008255776        1.8388923587        2.1432705235
 H           1.0    -1.7260757172        3.7488384144       -0.5946400766
 H           1.0    -1.6663036842        0.0578067180       -3.3191903139
 H           1.0    -4.4716775020       -0.4816911543       -1.4503457983
 H           1.0    -0.9632311305       -4.2157519115       -1.5095131190
 H           1.0    -1.8078252634       -2.9867497181        1.5862170968
 H           1.0     2.9574967598        2.4240460108        0.4340322649
 H           1.0     3.7649955716       -4.4926156660       -1.1940989544
 H           1.0     5.3579778875       -2.4970650229        1.0683943817
 H           1.0     4.9505529646       -1.4419365177       -2.1500357425
 B           5.0     1.8700539402        1.3798779162        4.6239327248
 H           1.0     1.8985510081       -2.2665940415        3.7590996266
 H           1.0     0.1588692638        2.0920400520        5.8740620548
 H           1.0     3.8490127891        2.3160292733        5.0899958452

          INTERNUCLEAR DISTANCES (ANGS.)
          ------------------------------

                1 C          2 C          3 C          4 C          5 C     

   1 C       0.0000000    1.5287833 *  2.3615959 *  1.5274113 *  2.3295814 *
   2 C       1.5287833 *  0.0000000    1.5167161 *  2.3769320 *  2.2996497 *
   3 C       2.3615959 *  1.5167161 *  0.0000000    2.3544418 *  1.5000119 *
   4 C       1.5274113 *  2.3769320 *  2.3544418 *  0.0000000    1.3613267 *
   5 C       2.3295814 *  2.2996497 *  1.5000119 *  1.3613267 *  0.0000000  
   6 C       3.7606491    3.6341334    2.6633737 *  2.5290556 *  1.5058571 *
   7 H       1.1113575 *  2.1676565 *  2.7593155 *  2.1780724 *  2.9298601 *
   8 H       1.1105589 *  2.1946444 *  3.3425731    2.2232655 *  3.2159284  
   9 H       2.1576853 *  1.1156939 *  2.1383965 *  2.7282691 *  2.5955669 *
  10 H       2.2337000 *  1.1104612 *  2.2323016 *  3.3868994    3.3308029  
  11 H       3.3785063    2.2195253 *  1.1103846 *  3.3150668    2.2124991 *
  12 H       2.6675872 *  2.1436544 *  1.1132652 *  2.7862364 *  2.1458070 *
  13 H       2.3537538 *  3.3070313    3.3583712    1.1071839 *  2.1138636 *
  14 H       4.4328077    3.9481493    2.7555076 *  3.4228488    2.1581893 *
  15 H       4.3038038    4.4535735    3.4211529    2.8955408 *  2.1613389 *
  16 H       4.0366836    3.9529198    3.3310701    2.8215508 *  2.1499659 *
  17 B       2.8895655 *  3.9849068    3.6380610    2.0791914 *  2.7879772 *
  18 H       3.3577540    3.6885068    2.6240665 *  2.4406189 *  2.0079076 *
  19 H       3.0617291    4.2488861    4.1117705    2.8264678 *  3.6227666  
  20 H       3.7813934    4.9425151    4.5936878    2.7330318 *  3.4778707  

                6 C          7 H          8 H          9 H         10 H     

   1 C       3.7606491    1.1113575 *  1.1105589 *  2.1576853 *  2.2337000 *
   2 C       3.6341334    2.1676565 *  2.1946444 *  1.1156939 *  1.1104612 *
   3 C       2.6633737 *  2.7593155 *  3.3425731    2.1383965 *  2.2323016 *
   4 C       2.5290556 *  2.1780724 *  2.2232655 *  2.7282691 *  3.3868994  
   5 C       1.5058571 *  2.9298601 *  3.2159284    2.5955669 *  3.3308029  
   6 C       0.0000000    4.4071312    4.5102010    3.6235604    4.6633208  
   7 H       4.4071312    0.0000000    1.8134871 *  3.0722908    2.4923880 *
   8 H       4.5102010    1.8134871 *  0.0000000    2.4279066 *  2.7069856 *
   9 H       3.6235604    3.0722908    2.4279066 *  0.0000000    1.8064843 *
  10 H       4.6633208    2.4923880 *  2.7069856 *  1.8064843 *  0.0000000  
  11 H       2.8501820 *  3.8293477    4.2615569    2.4838966 *  2.7115316 *
  12 H       3.3193221    2.5966043 *  3.7467457    3.0560788    2.5152425 *
  13 H       2.7281871 *  3.0425245    2.6325753 *  3.3910849    4.3375371  
  14 H       1.1098703 *  5.0337676    5.2501419    3.9145301    4.8498730  
  15 H       1.1098478 *  4.7836182    5.0746087    4.5864376    5.4745659  
  16 H       1.1101558 *  4.8707125    4.5503327    3.6432208    5.0255143  
  17 B       3.6274921    2.6705876 *  3.5803690    4.6539598    4.7502275  
  18 H       2.5679201 *  3.2970943    4.3726309    4.3705433    4.4559116  
  19 H       4.6744956    2.4282759 *  3.6716705    5.0752830    4.7835108  
  20 H       3.9410280    3.7129731    4.2810943    5.4541901    5.7929127  

               11 H         12 H         13 H         14 H         15 H     

   1 C       3.3785063    2.6675872 *  2.3537538 *  4.4328077    4.3038038  
   2 C       2.2195253 *  2.1436544 *  3.3070313    3.9481493    4.4535735  
   3 C       1.1103846 *  1.1132652 *  3.3583712    2.7555076 *  3.4211529  
   4 C       3.3150668    2.7862364 *  1.1071839 *  3.4228488    2.8955408 *
   5 C       2.2124991 *  2.1458070 *  2.1138636 *  2.1581893 *  2.1613389 *
   6 C       2.8501820 *  3.3193221    2.7281871 *  1.1098703 *  1.1098478 *
   7 H       3.8293477    2.5966043 *  3.0425245    5.0337676    4.7836182  
   8 H       4.2615569    3.7467457    2.6325753 *  5.2501419    5.0746087  
   9 H       2.4838966 *  3.0560788    3.3910849    3.9145301    4.5864376  
  10 H       2.7115316 *  2.5152425 *  4.3375371    4.8498730    5.4745659  
  11 H       0.0000000    1.8183481 *  4.2080870    2.5119073 *  3.7252415  
  12 H       1.8183481 *  0.0000000    3.8638106    3.3906233    3.8106886  
  13 H       4.2080870    3.8638106    0.0000000    3.7843786    2.9168209 *
  14 H       2.5119073 *  3.3906233    3.7843786    0.0000000    1.8053160 *
  15 H       3.7252415    3.8106886    2.9168209 *  1.8053160 *  0.0000000  
  16 H       3.4731594    4.1674753    2.6772134 *  1.8043318 *  1.8052301 *
  17 B       4.6422370    3.4221835    2.3563595 *  4.4879247    3.3400330  
  18 H       3.3362220    2.3052499 *  3.0937434    3.0386463    2.3223977 *
  19 H       5.1730840    3.6680652    3.2421109    5.4564497    4.4647340  
  20 H       5.5342776    4.5025412    2.5092414 *  4.9032364    3.4137524  

               16 H         17 B         18 H         19 H         20 H     

   1 C       4.0366836    2.8895655 *  3.3577540    3.0617291    3.7813934  
   2 C       3.9529198    3.9849068    3.6885068    4.2488861    4.9425151  
   3 C       3.3310701    3.6380610    2.6240665 *  4.1117705    4.5936878  
   4 C       2.8215508 *  2.0791914 *  2.4406189 *  2.8264678 *  2.7330318 *
   5 C       2.1499659 *  2.7879772 *  2.0079076 *  3.6227666    3.4778707  
   6 C       1.1101558 *  3.6274921    2.5679201 *  4.6744956    3.9410280  
   7 H       4.8707125    2.6705876 *  3.2970943    2.4282759 *  3.7129731  
   8 H       4.5503327    3.5803690    4.3726309    3.6716705    4.2810943  
   9 H       3.6432208    4.6539598    4.3705433    5.0752830    5.4541901  
  10 H       5.0255143    4.7502275    4.4559116    4.7835108    5.7929127  
  11 H       3.4731594    4.6422370    3.3362220    5.1730840    5.5342776  
  12 H       4.1674753    3.4221835    2.3052499 *  3.6680652    4.5025412  
  13 H       2.6772134 *  2.3563595 *  3.0937434    3.2421109    2.5092414 *
  14 H       1.8043318 *  4.4879247    3.0386463    5.4564497    4.9032364  
  15 H       1.8052301 *  3.3400330    2.3223977 *  4.4647340    3.4137524  
  16 H       0.0000000    4.2114916    3.5463822    5.2874147    4.3557992  
  17 B       4.2114916    0.0000000    1.9832153 *  1.1830575 *  1.1844439 *
  18 H       3.5463822    1.9832153 *  0.0000000    2.7239653 *  2.7280112 *
  19 H       5.2874147    1.1830575 *  2.7239653 *  0.0000000    1.9998483 *
  20 H       4.3557992    1.1844439 *  2.7280112 *  1.9998483 *  0.0000000  

  * ... LESS THAN  3.000


     ATOMIC BASIS SET
     ----------------
 THE CONTRACTED PRIMITIVE FUNCTIONS HAVE BEEN UNNORMALIZED
 THE CONTRACTED BASIS FUNCTIONS ARE NOW NORMALIZED TO UNITY

  SHELL TYPE  PRIMITIVE        EXPONENT          CONTRACTION COEFFICIENT(S)

 C         

      1   S       1            71.6168373    0.154328967295
      1   S       2            13.0450963    0.535328142282
      1   S       3             3.5305122    0.444634542185

      2   L       4             2.9412494   -0.099967229187    0.155916274999
      2   L       5             0.6834831    0.399512826089    0.607683718598
      2   L       6             0.2222899    0.700115468880    0.391957393099

 C         

      3   S       7            71.6168373    0.154328967295
      3   S       8            13.0450963    0.535328142282
      3   S       9             3.5305122    0.444634542185

      4   L      10             2.9412494   -0.099967229187    0.155916274999
      4   L      11             0.6834831    0.399512826089    0.607683718598
      4   L      12             0.2222899    0.700115468880    0.391957393099

 C         

      5   S      13            71.6168373    0.154328967295
      5   S      14            13.0450963    0.535328142282
      5   S      15             3.5305122    0.444634542185

      6   L      16             2.9412494   -0.099967229187    0.155916274999
      6   L      17             0.6834831    0.399512826089    0.607683718598
      6   L      18             0.2222899    0.700115468880    0.391957393099

 C         

      7   S      19            71.6168373    0.154328967295
      7   S      20            13.0450963    0.535328142282
      7   S      21             3.5305122    0.444634542185

      8   L      22             2.9412494   -0.099967229187    0.155916274999
      8   L      23             0.6834831    0.399512826089    0.607683718598
      8   L      24             0.2222899    0.700115468880    0.391957393099

 C         

      9   S      25            71.6168373    0.154328967295
      9   S      26            13.0450963    0.535328142282
      9   S      27             3.5305122    0.444634542185

     10   L      28             2.9412494   -0.099967229187    0.155916274999
     10   L      29             0.6834831    0.399512826089    0.607683718598
     10   L      30             0.2222899    0.700115468880    0.391957393099

 C         

     11   S      31            71.6168373    0.154328967295
     11   S      32            13.0450963    0.535328142282
     11   S      33             3.5305122    0.444634542185

     12   L      34             2.9412494   -0.099967229187    0.155916274999
     12   L      35             0.6834831    0.399512826089    0.607683718598
     12   L      36             0.2222899    0.700115468880    0.391957393099

 H         

     13   S      37             3.4252509    0.154328967295
     13   S      38             0.6239137    0.535328142282
     13   S      39             0.1688554    0.444634542185

 H         

     14   S      40             3.4252509    0.154328967295
     14   S      41             0.6239137    0.535328142282
     14   S      42             0.1688554    0.444634542185

 H         

     15   S      43             3.4252509    0.154328967295
     15   S      44             0.6239137    0.535328142282
     15   S      45             0.1688554    0.444634542185

 H         

     16   S      46             3.4252509    0.154328967295
     16   S      47             0.6239137    0.535328142282
     16   S      48             0.1688554    0.444634542185

 H         

     17   S      49             3.4252509    0.154328967295
     17   S      50             0.6239137    0.535328142282
     17   S      51             0.1688554    0.444634542185

 H         

     18   S      52             3.4252509    0.154328967295
     18   S      53             0.6239137    0.535328142282
     18   S      54             0.1688554    0.444634542185

 H         

     19   S      55             3.4252509    0.154328967295
     19   S      56             0.6239137    0.535328142282
     19   S      57             0.1688554    0.444634542185

 H         

     20   S      58             3.4252509    0.154328967295
     20   S      59             0.6239137    0.535328142282
     20   S      60             0.1688554    0.444634542185

 H         

     21   S      61             3.4252509    0.154328967295
     21   S      62             0.6239137    0.535328142282
     21   S      63             0.1688554    0.444634542185

 H         

     22   S      64             3.4252509    0.154328967295
     22   S      65             0.6239137    0.535328142282
     22   S      66             0.1688554    0.444634542185

 B         

     23   S      67            48.7911132    0.154328967295
     23   S      68             8.8873622    0.535328142282
     23   S      69             2.4052670    0.444634542185

     24   L      70             2.2369561   -0.099967229187    0.155916274999
     24   L      71             0.5198205    0.399512826089    0.607683718598
     24   L      72             0.1690618    0.700115468880    0.391957393099

 H         

     25   S      73             3.4252509    0.154328967295
     25   S      74             0.6239137    0.535328142282
     25   S      75             0.1688554    0.444634542185

 H         

     26   S      76             3.4252509    0.154328967295
     26   S      77             0.6239137    0.535328142282
     26   S      78             0.1688554    0.444634542185

 H         

     27   S      79             3.4252509    0.154328967295
     27   S      80             0.6239137    0.535328142282
     27   S      81             0.1688554    0.444634542185

 TOTAL NUMBER OF BASIS SET SHELLS             =   27
 NUMBER OF CARTESIAN GAUSSIAN BASIS FUNCTIONS =   48
 NUMBER OF ELECTRONS                          =   54
 CHARGE OF MOLECULE                           =    0
 SPIN MULTIPLICITY                            =    1
 NUMBER OF OCCUPIED ORBITALS (ALPHA)          =   27
 NUMBER OF OCCUPIED ORBITALS (BETA )          =   27
 TOTAL NUMBER OF ATOMS                        =   20
 THE NUCLEAR REPULSION ENERGY IS      301.9051633499

     $CONTRL OPTIONS
     ---------------
 SCFTYP=RHF          RUNTYP=OPTIMIZE     EXETYP=RUN     
 MPLEVL=       0     CITYP =NONE         CCTYP =NONE         VBTYP =NONE    
 DFTTYP=NONE         TDDFT =NONE    
 MULT  =       1     ICHARG=       0     NZVAR =       1     COORD =UNIQUE  
 PP    =NONE         RELWFN=NONE         LOCAL =NONE         NUMGRD=       F
 ISPHER=      -1     NOSYM =       0     MAXIT =      30     UNITS =ANGS    
 PLTORB=       F     MOLPLT=       F     AIMPAC=       F     FRIEND=        
 NPRINT=       7     IREST =       0     GEOM  =INPUT   
 NORMF =       0     NORMP =       0     ITOL  =      20     ICUT  =       9
 INTTYP=BEST         GRDTYP=BEST         QMTTOL= 1.0E-06

     $SYSTEM OPTIONS
     ---------------
  REPLICATED MEMORY=     1000000 WORDS (ON EVERY NODE).
 DISTRIBUTED MEMDDI=           0 MILLION WORDS IN AGGREGATE,
 MEMDDI DISTRIBUTED OVER   1 PROCESSORS IS           0 WORDS/PROCESSOR.
 TOTAL MEMORY REQUESTED ON EACH PROCESSOR=     1000000 WORDS.
 TIMLIM=      525600.00 MINUTES, OR     365.0 DAYS.
 PARALL= F  BALTYP=  DLB     KDIAG=    0  COREFL= F
 MXSEQ2=     300 MXSEQ3=     150  mem10=         0

          ----------------
          PROPERTIES INPUT
          ----------------

     MOMENTS            FIELD           POTENTIAL          DENSITY
 IEMOM =       1   IEFLD =       0   IEPOT =       0   IEDEN =       0
 WHERE =COMASS     WHERE =NUCLEI     WHERE =NUCLEI     WHERE =NUCLEI  
 OUTPUT=BOTH       OUTPUT=BOTH       OUTPUT=BOTH       OUTPUT=BOTH    
 IEMINT=       0   IEFINT=       0                     IEDINT=       0
                                                       MORB  =       0
          EXTRAPOLATION IN EFFECT
          SOSCF IN EFFECT
 ORBITAL PRINTING OPTION: NPREO=     1    48     2     1

     -------------------------------
     INTEGRAL TRANSFORMATION OPTIONS
     -------------------------------
     NWORD  =            0
     CUTOFF = 1.0E-09     MPTRAN =       0
     DIRTRF =       F     AOINTS =DUP     

          ----------------------
          INTEGRAL INPUT OPTIONS
          ----------------------
 NOPK  =       1 NORDER=       0 SCHWRZ=       T


 -----------------------------------------------
  STATISTICS ON AUTOMATIC COORDINATE GENERATION 
 -----------------------------------------------
  NUMBER OF USER SPECIFIED BONDS                             3
  NUMBER OF BONDS                                           21
  NUMBER OF ANGLES                                          43
  NUMBER OF TORSIONS                                        69
  NUMBER OF EXTRA COORD.                                     0
  NUMBER OF EXTRA COORD. FOR CONSTRAINTS                     0
  NUMBER OF CONSTRAINED COORD.                               3

  TOTAL NUMBER OF PRIMITIVES                               133
 -----------------------------------------------

   --- ENCODED Z MATRIX ---
 COORD  TYPE   I   J   K   L   M   N
    1      1    4  17
    2      1    5  18
    3      1   17  18
    4      1    1   8
    5      1    1   4
    6      1    1   7
    7      1    1   2
    8      1    2   9
    9      1    2   3
   10      1    2  10
   11      1    3  12
   12      1    3  11
   13      1    3   5
   14      1    4  13
   15      1    4   5
   16      1    5   6
   17      1    6  15
   18      1    6  14
   19      1    6  16
   20      1   17  20
   21      1   17  19
   22      2    1   2   9
   23      2    1   4   5
   24      2    1   4  17
   25      2    1   2   3
   26      2    1   4  13
   27      2    1   2  10
   28      2    2   3   5
   29      2    2   1   8
   30      2    2   1   7
   31      2    2   1   4
   32      2    2   3  11
   33      2    2   3  12
   34      2    3   2   9
   35      2    3   5  18
   36      2    3   5   4
   37      2    3   2  10
   38      2    3   5   6
   39      2    4  17  18
   40      2    4   5  18
   41      2    4   5   6
   42      2    4   1   8
   43      2    4   1   7
   44      2    4  17  19
   45      2    4  17  20
   46      2    5   4  17
   47      2    5   4  13
   48      2    5   3  11
   49      2    5   3  12
   50      2    5  18  17
   51      2    5   6  16
   52      2    5   6  14
   53      2    5   6  15
   54      2    6   5  18
   55      2    7   1   8
   56      2    9   2  10
   57      2   11   3  12
   58      2   13   4  17
   59      2   14   6  16
   60      2   14   6  15
   61      2   15   6  16
   62      2   18  17  19
   63      2   18  17  20
   64      2   19  17  20
   65      3    1   4   5   3
   66      3    1   4  17  19
   67      3    1   4  17  20
   68      3    1   4  17  18
   69      3    1   4   5   6
   70      3    1   2   3   5
   71      3    1   2   3  11
   72      3    1   2   3  12
   73      3    1   4   5  18
   74      3    2   3   5   4
   75      3    2   1   4  13
   76      3    2   1   4  17
   77      3    2   1   4   5
   78      3    2   3   5  18
   79      3    2   3   5   6
   80      3    3   5   4  13
   81      3    3   5  18  17
   82      3    3   2   1   7
   83      3    3   5   6  16
   84      3    3   5   6  14
   85      3    3   5   6  15
   86      3    3   2   1   4
   87      3    3   5   4  17
   88      3    3   2   1   8
   89      3    4   5   3  11
   90      3    4   5   3  12
   91      3    4   1   2  10
   92      3    4   1   2   9
   93      3    4   5   6  16
   94      3    4   5   6  14
   95      3    4   5   6  15
   96      3    4   5  18  17
   97      3    4  17  18   5
   98      3    5   3   2  10
   99      3    5  18  17  19
  100      3    5  18  17  20
  101      3    5   3   2   9
  102      3    5   4  17  20
  103      3    5   4  17  19
  104      3    5   4   1   7
  105      3    5   4  17  18
  106      3    5   4   1   8
  107      3    6   5  18  17
  108      3    6   5   4  17
  109      3    6   5   4  13
  110      3    6   5   3  11
  111      3    6   5   3  12
  112      3    7   1   2   9
  113      3    7   1   2  10
  114      3    7   1   4  13
  115      3    7   1   4  17
  116      3    8   1   2  10
  117      3    8   1   4  13
  118      3    8   1   4  17
  119      3    8   1   2   9
  120      3    9   2   3  12
  121      3    9   2   3  11
  122      3   10   2   3  12
  123      3   10   2   3  11
  124      3   11   3   5  18
  125      3   12   3   5  18
  126      3   13   4  17  20
  127      3   13   4  17  19
  128      3   13   4   5  18
  129      3   13   4  17  18
  130      3   14   6   5  18
  131      3   15   6   5  18
  132      3   16   6   5  18
  133      3   17   4   5  18

          INDEP./SYM. INTERNAL COORDINATES
          --------------------------------
 CRD  1=   1.0000 (  1)
 CRD  2=   1.0000 (  2)
 CRD  3=   1.0000 (  3)
 CRD  4=   0.1565 (  5)  0.2020 ( 13)  0.1770 ( 15)  0.3714 ( 16)  0.1507 ( 24)
          -0.1109 ( 34)  0.1220 ( 43) -0.1678 ( 51)  0.1283 ( 52)  0.3452 ( 53)
          -0.1628 ( 60) -0.1055 ( 64) -0.1808 ( 65) -0.2306 ( 69) -0.1399 ( 73)
           0.1439 ( 74)  0.1365 ( 77)  0.2013 ( 79) -0.1001 ( 82)  0.1307 ( 99)
          -0.1044 (100)  0.1199 (106)  0.1118 (111)
 CRD  5=  -0.1196 ( 12) -0.2957 ( 13) -0.1767 ( 16)  0.1441 ( 22)  0.1645 ( 28)
          -0.1786 ( 35)  0.1060 ( 39)  0.1598 ( 40) -0.1539 ( 46) -0.1828 ( 49)
          -0.1110 ( 50) -0.1588 ( 52)  0.1420 ( 58) -0.1118 ( 62) -0.1042 ( 65)
          -0.1325 ( 72)  0.2554 ( 76)  0.1025 ( 77)  0.1815 ( 78)  0.1019 ( 85)
          -0.1284 ( 86) -0.1421 ( 87) -0.1169 ( 91) -0.1573 (100)  0.1440 (115)
           0.1631 (118)  0.1732 (124) -0.1527 (130) -0.1318 (131) -0.1575 (132)
 CRD  6=   0.1046 (  4)  0.1409 (  9) -0.1127 ( 10) -0.2234 ( 13)  0.1500 ( 15)
           0.1269 ( 16) -0.1111 ( 22)  0.1979 ( 23)  0.2895 ( 25) -0.1371 ( 26)
          -0.1530 ( 27) -0.1754 ( 28)  0.1418 ( 29) -0.3350 ( 31)  0.1670 ( 32)
           0.1045 ( 40)  0.1904 ( 43) -0.1480 ( 45) -0.1467 ( 46)  0.1394 ( 49)
          -0.1388 ( 55)  0.1156 ( 56)  0.1547 ( 64)  0.1009 ( 66)  0.1118 ( 67)
           0.1392 ( 68) -0.1210 ( 70)  0.1292 (100) -0.1444 (101)
 CRD  7=  -0.1355 (  5)  0.2274 (  7)  0.1238 ( 12)  0.1055 ( 13)  0.1995 ( 15)
          -0.1294 ( 17)  0.1067 ( 21)  0.1205 ( 25) -0.1492 ( 28)  0.1071 ( 44)
           0.1688 ( 45)  0.1027 ( 48)  0.3680 ( 51)  0.1310 ( 52) -0.4653 ( 53)
          -0.2012 ( 59)  0.1295 ( 60) -0.1656 ( 64) -0.1097 ( 87) -0.1094 ( 94)
          -0.2044 (100)  0.1032 (104)
 CRD  8=  -0.1244 (  4) -0.3940 (  5) -0.3308 (  7)  0.2357 ( 13) -0.1462 ( 26)
          -0.1176 ( 27) -0.1229 ( 28) -0.1153 ( 30)  0.1601 ( 31) -0.1989 ( 42)
          -0.1255 ( 45)  0.1414 ( 47)  0.1236 ( 48)  0.1764 ( 51) -0.2617 ( 52)
           0.1264 ( 66)  0.1321 ( 67) -0.1163 ( 73)  0.1440 ( 81)  0.1120 ( 86)
           0.1429 ( 91)  0.1073 ( 92)  0.1300 (102)  0.1243 (103)  0.1187 (107)
 CRD  9=  -0.1051 (  5) -0.2989 (  7) -0.2429 ( 13)  0.1774 ( 18) -0.2970 ( 51)
           0.5413 ( 52) -0.2857 ( 53) -0.1039 ( 59) -0.1054 ( 60)  0.2517 ( 61)
           0.1067 (107)
 CRD 10=  -0.1838 (  7) -0.6341 (  9) -0.1677 ( 10) -0.1578 ( 12) -0.1255 ( 15)
           0.1281 ( 25) -0.1401 ( 32) -0.1272 ( 34) -0.1448 ( 37)  0.1097 ( 43)
           0.1953 ( 51) -0.1457 ( 53)  0.1098 ( 56) -0.1100 ( 59)  0.1110 ( 92)
           0.1079 (111) -0.1020 (113)  0.1224 (119) -0.1089 (124)
 CRD 11=  -0.2328 (  5)  0.4666 (  7) -0.2260 (  9)  0.1413 ( 15)  0.1291 ( 22)
          -0.1027 ( 26)  0.1734 ( 27)  0.1954 ( 29) -0.1160 ( 37) -0.1428 ( 42)
          -0.1581 ( 45) -0.1774 ( 51)  0.1573 ( 52) -0.1013 ( 60) -0.1078 ( 98)
           0.1498 (100) -0.1690 (106)  0.1455 (112)  0.1260 (114) -0.1475 (116)
          -0.1049 (118)  0.1158 (120) -0.1124 (123)  0.1032 (125)
 CRD 12=   0.1170 (  6)  0.1313 (  7)  0.1772 (  9)  0.1220 ( 10) -0.1745 ( 13)
          -0.1327 ( 14) -0.1612 ( 15)  0.1008 ( 19)  0.1591 ( 22) -0.1784 ( 25)
           0.1400 ( 33)  0.2259 ( 37) -0.1685 ( 42)  0.1343 ( 43) -0.1673 ( 45)
           0.2479 ( 51) -0.1393 ( 53) -0.1200 ( 58) -0.1313 ( 59) -0.1030 ( 72)
           0.1353 ( 74) -0.1256 ( 76)  0.1224 ( 79) -0.1138 ( 80) -0.1307 ( 82)
          -0.1425 ( 88)  0.1027 ( 89)  0.1445 ( 91)  0.1267 ( 92)  0.2429 (100)
          -0.1115 (103) -0.1021 (109) -0.1327 (115) -0.1637 (118)
 CRD 13=   0.2308 (  5)  0.1429 ( 12)  0.2011 ( 13)  0.2285 ( 14)  0.1702 ( 15)
          -0.1699 ( 16)  0.1025 ( 20) -0.1718 ( 21)  0.1181 ( 22) -0.1596 ( 27)
          -0.1675 ( 30) -0.1391 ( 34)  0.1454 ( 43) -0.2960 ( 44)  0.1492 ( 48)
          -0.1154 ( 49) -0.1379 ( 51)  0.1206 ( 61)  0.1369 ( 64) -0.1120 ( 71)
           0.1272 ( 75) -0.1173 ( 82)  0.1222 ( 98) -0.3212 ( 99)  0.1412 (101)
          -0.1004 (111)
 CRD 14=  -0.1020 (  4)  0.1060 (  8)  0.2070 ( 11) -0.1329 ( 12)  0.1062 ( 20)
          -0.1983 ( 21)  0.1328 ( 27)  0.1366 ( 34) -0.2672 ( 44)  0.2485 ( 45)
          -0.1506 ( 48)  0.2139 ( 49) -0.1314 ( 70) -0.1113 ( 77)  0.1096 ( 78)
           0.1506 ( 86)  0.1008 ( 90) -0.1934 ( 98) -0.2862 ( 99) -0.2898 (100)
          -0.1841 (101)  0.1143 (125) -0.1031 (130) -0.1178 (131) -0.1154 (132)
 CRD 15=   0.2116 (  6) -0.2629 ( 11) -0.3722 ( 14)  0.1409 ( 20)  0.1617 ( 22)
           0.1250 ( 23) -0.1398 ( 27) -0.1599 ( 34)  0.1447 ( 37)  0.2645 ( 45)
          -0.1517 ( 64)  0.1256 ( 68) -0.1002 ( 72) -0.1125 ( 76)  0.1048 ( 80)
          -0.1024 ( 83) -0.1217 ( 84) -0.1048 ( 85)  0.1177 ( 92) -0.1121 ( 94)
          -0.2813 (100)  0.1104 (109)
 CRD 16=  -0.1046 (  5) -0.1901 (  6) -0.3561 (  8)  0.2675 ( 10) -0.2318 ( 14)
           0.1669 ( 20) -0.1269 ( 21) -0.1552 ( 22) -0.1053 ( 26)  0.1285 ( 27)
          -0.1340 ( 44)  0.1093 ( 45) -0.1377 ( 48)  0.1016 ( 67)  0.1129 ( 70)
           0.2282 ( 71)  0.1891 ( 72) -0.1194 ( 82)  0.1019 ( 85) -0.1219 ( 86)
          -0.1975 ( 88)  0.1465 ( 93)  0.1483 ( 94)  0.1503 ( 95) -0.1273 ( 99)
          -0.1019 (100)  0.1202 (104)  0.1246 (130)  0.1266 (131)  0.1227 (132)
 CRD 17=   0.1519 (  5) -0.3468 (  8)  0.2318 ( 10) -0.1708 ( 11)  0.3021 ( 14)
          -0.1790 ( 20)  0.1374 ( 21)  0.1089 ( 29) -0.1387 ( 30) -0.1419 ( 33)
          -0.1300 ( 34) -0.1541 ( 42)  0.1725 ( 43)  0.1447 ( 44) -0.1344 ( 48)
           0.1358 ( 71)  0.1327 ( 72) -0.1891 ( 82) -0.1165 ( 83) -0.1157 ( 84)
          -0.1135 ( 85) -0.1682 ( 88)  0.1129 ( 92) -0.1267 ( 93) -0.1259 ( 94)
          -0.1237 ( 95)  0.1050 ( 99)  0.1017 (129) -0.1091 (130) -0.1069 (131)
          -0.1099 (132)
 CRD 18=  -0.2499 (  5) -0.1300 (  6) -0.1278 (  8) -0.1409 ( 11)  0.1483 ( 12)
          -0.1483 ( 13) -0.1470 ( 18) -0.1831 ( 19) -0.1556 ( 21)  0.1284 ( 29)
          -0.1667 ( 30)  0.1515 ( 32) -0.1184 ( 42)  0.2039 ( 53) -0.1604 ( 60)
          -0.1320 ( 61) -0.1220 ( 66) -0.1979 ( 67) -0.1830 ( 68) -0.1099 ( 79)
          -0.1810 ( 81)  0.1104 ( 89) -0.1026 ( 96) -0.1217 (102) -0.1421 (104)
          -0.1068 (105) -0.1211 (106) -0.1371 (107) -0.1046 (115) -0.1871 (126)
          -0.1111 (127) -0.1721 (129)  0.1014 (133)
 CRD 19=   0.2014 (  4) -0.2804 (  6) -0.1127 ( 12) -0.2018 ( 14)  0.1203 ( 27)
          -0.2021 ( 32)  0.1346 ( 33) -0.1213 ( 44)  0.1032 ( 48) -0.1058 ( 58)
           0.1340 ( 64)  0.1009 ( 75) -0.2292 ( 83) -0.2135 ( 84) -0.2229 ( 85)
          -0.1855 ( 89) -0.1451 ( 90) -0.1276 ( 91) -0.1069 ( 92) -0.1631 ( 93)
          -0.1474 ( 94) -0.1567 ( 95) -0.1478 ( 99) -0.1267 (109) -0.1279 (110)
          -0.1556 (124) -0.1151 (125) -0.1316 (128) -0.1505 (130) -0.1599 (131)
          -0.1662 (132)
 CRD 20=  -0.1629 (  4)  0.1762 (  6)  0.2070 ( 14) -0.1342 ( 16) -0.4246 ( 17)
          -0.4082 ( 18) -0.4267 ( 19) -0.1149 ( 29)  0.1078 ( 30)  0.1631 ( 51)
           0.1861 ( 52)  0.1409 ( 53) -0.1800 ( 59) -0.1714 ( 60) -0.1506 ( 61)
           0.1174 (115)  0.1181 (118)
 CRD 21=   0.3809 (  4)  0.1223 (  5) -0.1288 (  6) -0.1483 ( 10) -0.1923 ( 14)
          -0.1718 ( 16) -0.2276 ( 17) -0.2131 ( 18) -0.2115 ( 19)  0.1025 ( 20)
           0.1295 ( 21)  0.1676 ( 29) -0.1420 ( 30) -0.1213 ( 33) -0.1081 ( 64)
           0.1447 ( 67)  0.1074 ( 68)  0.1080 ( 81)  0.1146 ( 89)  0.1333 ( 90)
          -0.1409 (104) -0.1358 (106) -0.1303 (114) -0.1898 (115) -0.1252 (117)
          -0.1847 (118)  0.1020 (125)  0.1391 (126)  0.1018 (129)
 CRD 22=   0.3810 ( 11) -0.2377 ( 12)  0.2063 ( 17) -0.1875 ( 19) -0.1540 ( 20)
           0.1003 ( 29) -0.1120 ( 32)  0.2003 ( 33) -0.1001 ( 42)  0.1071 ( 43)
           0.1274 ( 44)  0.1287 ( 45) -0.2404 ( 64)  0.1135 ( 83)  0.1105 ( 85)
          -0.1171 ( 89) -0.1717 ( 90)  0.1141 ( 99) -0.1500 (100) -0.2051 (110)
          -0.2598 (111) -0.1041 (120) -0.1292 (124) -0.1839 (125)
 CRD 23=  -0.1071 (  4)  0.5740 ( 20)  0.6812 ( 21) -0.1031 ( 63)  0.1916 ( 64)
          -0.1092 ( 67) -0.1082 (126)
 CRD 24=  -0.3240 (  4) -0.3209 (  6)  0.1150 (  8)  0.1492 ( 12) -0.1982 ( 17)
           0.1997 ( 18) -0.3408 ( 20)  0.1764 ( 21)  0.1806 ( 62) -0.2169 ( 63)
          -0.1297 ( 66) -0.1369 ( 67)  0.1485 ( 93)  0.1008 ( 94) -0.1267 (100)
          -0.1779 (102) -0.1707 (103) -0.1836 (126) -0.1764 (127)  0.1332 (132)
 CRD 25=   0.1139 (  4) -0.1414 ( 11) -0.1939 ( 12) -0.3143 ( 17)  0.5708 ( 18)
          -0.2405 ( 19)  0.1172 ( 20) -0.1018 ( 52)  0.1835 ( 59)  0.1404 ( 60)
          -0.3268 ( 61)  0.1688 ( 83) -0.1700 ( 85)  0.1594 ( 93) -0.1793 ( 95)
          -0.1773 (131)  0.1615 (132)
 CRD 26=  -0.4867 ( 17)  0.5534 ( 19)  0.2870 ( 59) -0.3121 ( 60)  0.1082 ( 83)
          -0.2015 ( 84)  0.1344 ( 85) -0.2169 ( 94)  0.1189 ( 95) -0.2177 (130)
           0.1181 (131)
 CRD 27=   0.1076 (  6) -0.3403 (  8) -0.2183 ( 10)  0.5492 ( 11)  0.4657 ( 12)
           0.1732 ( 18) -0.1041 ( 19)  0.1803 ( 57)  0.1368 (121) -0.1098 (122)
 CRD 28=   0.1250 (  4)  0.2750 (  6) -0.3693 (  8) -0.5005 ( 10) -0.2763 ( 11)
          -0.1092 ( 12)  0.1027 ( 14)  0.1097 ( 27)  0.1452 ( 34) -0.1941 ( 56)
           0.1019 ( 80) -0.1291 ( 92)  0.1289 ( 94) -0.1416 (112) -0.2170 (119)
          -0.1365 (123)
 CRD 29=  -0.3840 (  4) -0.2197 (  6)  0.2828 ( 12)  0.1050 ( 14)  0.2279 ( 20)
          -0.1880 ( 21)  0.1078 ( 43) -0.1475 ( 55) -0.1537 ( 62)  0.1660 ( 63)
           0.1452 ( 66)  0.1587 ( 67) -0.1236 ( 82)  0.1442 (102)  0.1307 (103)
          -0.1927 (112) -0.1634 (113) -0.1123 (117) -0.1173 (120) -0.1416 (122)
           0.1466 (126)  0.1330 (127)
 CRD 30=  -0.2606 (  4) -0.4102 (  6) -0.2631 (  8) -0.3465 ( 10) -0.3576 ( 12)
           0.1322 ( 22)  0.1007 ( 42) -0.1536 ( 55) -0.1205 ( 56) -0.1093 ( 57)
           0.1226 ( 88) -0.1053 ( 94)  0.1061 (101)  0.1266 (114)  0.2011 (116)
           0.1088 (119)  0.2055 (120)  0.1344 (121)
 CRD 31=   0.2409 (  4) -0.2058 (  6)  0.1102 (  8)  0.1879 ( 11)  0.2548 ( 14)
           0.1014 ( 19) -0.1013 ( 26)  0.1127 ( 37)  0.1055 ( 57)  0.1022 ( 58)
           0.1186 ( 65)  0.1273 ( 71) -0.1048 ( 74) -0.1066 ( 75)  0.1959 ( 80)
          -0.1092 ( 83) -0.1222 ( 85) -0.2038 ( 89) -0.1027 ( 90)  0.1092 ( 94)
           0.1046 ( 98)  0.1049 (101) -0.1225 (104) -0.1166 (106)  0.1173 (112)
           0.1180 (113) -0.1470 (114) -0.1411 (117)  0.1478 (120)  0.1962 (121)
           0.1475 (122)  0.1959 (123) -0.1286 (124) -0.1312 (127)  0.1338 (128)
 CRD 32=   0.1115 ( 13) -0.1162 ( 14) -0.1834 ( 15)  0.1362 ( 18) -0.1015 ( 20)
          -0.1514 ( 21) -0.1527 ( 38) -0.2258 ( 62) -0.1861 ( 63)  0.2876 ( 64)
           0.2704 ( 66) -0.2208 ( 67) -0.1160 ( 75) -0.2006 (102)  0.2906 (103)
           0.1108 (107) -0.1378 (114) -0.1320 (117) -0.1316 (126)  0.3596 (127)
 CRD 33=   0.1642 (  4) -0.1725 (  6) -0.3588 (  8)  0.2748 ( 10) -0.1399 ( 11)
           0.1007 ( 12)  0.1007 ( 42) -0.1810 ( 71) -0.1645 ( 72)  0.1618 ( 82)
           0.1008 ( 86)  0.1830 ( 88)  0.1545 ( 91)  0.1347 ( 92) -0.1402 ( 98)
          -0.1274 (101)  0.1958 (112)  0.2156 (113)  0.2367 (116)  0.2170 (119)
          -0.1920 (120) -0.2085 (121) -0.2048 (122) -0.2213 (123)
 CRD 34=   0.1134 (  4) -0.1519 (  6)  0.1576 (  8) -0.1643 ( 10) -0.1560 ( 11)
           0.1684 ( 12) -0.1071 ( 13)  0.2917 ( 14) -0.2203 ( 15)  0.2286 ( 17)
           0.2040 ( 18)  0.1510 ( 19)  0.1055 ( 36)  0.1662 ( 51)  0.1735 ( 52)
           0.1697 ( 53) -0.1469 ( 54) -0.1430 ( 59) -0.2126 ( 60) -0.1658 ( 61)
          -0.1315 ( 73)  0.1247 ( 78) -0.1648 ( 99) -0.1019 (100)  0.1053 (102)
           0.1037 (105)  0.1379 (124)  0.1608 (126) -0.1240 (128)  0.1592 (129)
 CRD 35=   0.1246 (  4) -0.1473 ( 12) -0.2160 ( 13)  0.3377 ( 14)  0.1943 ( 15)
          -0.1897 ( 18) -0.1191 ( 21)  0.1170 ( 30)  0.1199 ( 38) -0.1623 ( 40)
           0.1152 ( 46)  0.1289 ( 50) -0.1446 ( 52)  0.1473 ( 57) -0.1019 ( 58)
           0.1030 ( 60) -0.1277 ( 63)  0.1094 ( 64)  0.1606 ( 66) -0.1145 ( 72)
          -0.1156 ( 78)  0.1060 ( 81) -0.1053 (101) -0.1334 (102)  0.1088 (103)
           0.1392 (104)  0.1692 (114) -0.1184 (118) -0.1755 (120) -0.1328 (124)
          -0.1582 (126)  0.1609 (130)  0.1111 (131)  0.1784 (132)
 CRD 36=   0.2039 (  4) -0.2287 (  6)  0.2053 (  8) -0.1189 ( 10) -0.1357 ( 11)
           0.1388 ( 12) -0.1336 ( 15)  0.1867 ( 16) -0.1478 ( 19) -0.1334 ( 20)
          -0.1290 ( 35) -0.1278 ( 44)  0.1071 ( 46) -0.1442 ( 51)  0.1312 ( 58)
           0.1163 ( 59)  0.1372 ( 61) -0.1090 ( 65)  0.1171 ( 74) -0.1248 ( 75)
          -0.1203 ( 87)  0.1032 ( 91) -0.1118 ( 93) -0.1131 ( 94) -0.1193 ( 98)
          -0.1495 ( 99)  0.1464 (100)  0.1351 (104)  0.1686 (106)  0.2328 (109)
          -0.1093 (110)  0.2524 (128)
 CRD 37=  -0.1107 (  8)  0.1546 ( 10)  0.1024 ( 11) -0.1374 ( 12) -0.1016 ( 13)
          -0.1198 ( 14)  0.1233 ( 15) -0.3120 ( 16)  0.2071 ( 17)  0.1684 ( 19)
          -0.2193 ( 20) -0.1003 ( 26) -0.1077 ( 40) -0.1283 ( 44)  0.1489 ( 51)
           0.1512 ( 52)  0.1883 ( 53)  0.1163 ( 58) -0.1170 ( 59) -0.1605 ( 60)
          -0.2228 ( 61)  0.1028 ( 64)  0.1208 ( 80)  0.1290 ( 90) -0.1208 ( 92)
          -0.1752 ( 99)  0.1038 (102)  0.1664 (109) -0.1750 (112)  0.1821 (128)
 CRD 38=   0.1631 (  4)  0.1479 (  8) -0.1119 ( 11) -0.3118 ( 16)  0.1115 ( 18)
           0.1257 ( 19) -0.1525 ( 32)  0.1078 ( 37)  0.1662 ( 43)  0.1378 ( 44)
           0.1707 ( 49) -0.1493 ( 56) -0.1305 ( 58) -0.1366 ( 59)  0.1140 ( 72)
           0.1307 ( 75) -0.1062 ( 80) -0.1173 ( 82)  0.1411 ( 84) -0.1602 ( 89)
           0.1835 ( 91) -0.1256 ( 98)  0.1969 ( 99) -0.2245 (110) -0.1733 (112)
           0.1843 (114)  0.1232 (116)  0.2141 (117)  0.1115 (120) -0.1279 (124)
          -0.1190 (126)
 CRD 39=  -0.2452 (  5)  0.1037 (  9)  0.1916 ( 10) -0.2207 ( 13)  0.1645 ( 15)
           0.2916 ( 20) -0.3264 ( 21)  0.1374 ( 22) -0.1245 ( 29) -0.1119 ( 30)
          -0.1074 ( 45) -0.1390 ( 47)  0.1092 ( 49) -0.1374 ( 56)  0.1536 ( 62)
          -0.1543 ( 63)  0.1111 ( 68)  0.1361 (101) -0.1050 (104)  0.1322 (106)
          -0.2118 (114) -0.1028 (115)  0.1344 (118)  0.2197 (120) -0.1247 (123)
           0.1966 (129)
 CRD 40=  -0.1248 ( 11)  0.1118 ( 12) -0.1265 ( 13) -0.1462 ( 14)  0.2165 ( 15)
          -0.1810 ( 18) -0.2630 ( 20)  0.2471 ( 21)  0.1669 ( 27) -0.1375 ( 29)
          -0.1369 ( 30) -0.1001 ( 41)  0.1006 ( 43) -0.1395 ( 48) -0.1645 ( 62)
           0.1045 ( 63)  0.1051 ( 66)  0.1206 ( 71) -0.1161 ( 90)  0.1092 ( 92)
          -0.1757 ( 98) -0.1000 (100)  0.1221 (102)  0.1806 (103) -0.1747 (104)
          -0.1050 (114) -0.1179 (115)  0.1340 (117)  0.1211 (118)  0.1106 (119)
           0.1781 (121) -0.1309 (122) -0.1043 (125)  0.1393 (127)  0.1373 (132)
 CRD 41=   0.1148 (  4) -0.1875 (  5)  0.3398 (  7) -0.2549 (  9) -0.1495 ( 12)
           0.1970 ( 16) -0.1603 ( 22)  0.1279 ( 26) -0.1414 ( 27)  0.1821 ( 34)
           0.1632 ( 37)  0.1641 ( 43) -0.1210 ( 49)  0.1248 ( 57) -0.1004 ( 82)
           0.1813 ( 91)  0.1309 ( 98) -0.2483 (112)  0.2022 (116)  0.1233 (118)
          -0.1972 (120)  0.1481 (123)  0.1287 (125)  0.1114 (126)
 CRD 42=   0.1695 (  5) -0.1033 (  6)  0.1294 (  7)  0.1147 (  8) -0.2397 ( 10)
           0.1900 ( 13) -0.2165 ( 14)  0.2901 ( 15) -0.3023 ( 16)  0.1336 ( 19)
           0.1086 ( 20) -0.1498 ( 21) -0.1097 ( 22)  0.1016 ( 26) -0.1165 ( 42)
          -0.1090 ( 45)  0.1575 ( 55)  0.1150 ( 57) -0.1277 ( 66) -0.1004 ( 67)
          -0.1113 ( 88)  0.1354 ( 92) -0.1561 (101)  0.1909 (112)  0.1351 (113)
          -0.1198 (114)  0.1258 (118) -0.1884 (120)
 CRD 43=  -0.1034 (  4)  0.1120 (  9) -0.2170 ( 13)  0.1282 ( 15) -0.1968 ( 20)
           0.1851 ( 21)  0.1135 ( 24)  0.1651 ( 26) -0.1271 ( 27)  0.1285 ( 29)
          -0.1469 ( 32) -0.1199 ( 33) -0.1383 ( 42) -0.1445 ( 43) -0.1407 ( 44)
          -0.1546 ( 47)  0.1726 ( 48)  0.1088 ( 49)  0.1044 ( 55)  0.1081 ( 63)
          -0.1411 ( 71) -0.1159 ( 81)  0.1291 ( 82)  0.1103 ( 84) -0.1363 ( 88)
           0.1178 ( 90) -0.1449 (110)  0.1760 (113) -0.1476 (117) -0.1933 (119)
          -0.1255 (121)  0.1405 (122)  0.1321 (125)  0.2276 (126)  0.1768 (127)
           0.1130 (129)
 CRD 44=   0.1142 (  6) -0.1027 (  8)  0.1028 ( 16) -0.3421 ( 17)  0.2747 ( 19)
          -0.1775 ( 51)  0.1644 ( 53) -0.2069 ( 59)  0.2338 ( 60)  0.3188 ( 84)
           0.1161 ( 88) -0.2239 ( 93)  0.1784 ( 94) -0.1829 ( 95)  0.1288 (109)
          -0.1492 (111)  0.1378 (123)  0.2515 (130) -0.1098 (131) -0.1508 (132)
 CRD 45=   0.1259 (  5)  0.1018 (  6) -0.1525 (  7) -0.1591 (  9)  0.1975 ( 12)
          -0.1532 ( 14) -0.2518 ( 18)  0.1287 ( 19) -0.1058 ( 21) -0.1441 ( 23)
           0.1223 ( 29)  0.1032 ( 33)  0.1352 ( 52) -0.1060 ( 53) -0.1435 ( 55)
          -0.1258 ( 57)  0.1220 ( 60) -0.1510 ( 61) -0.1086 ( 66) -0.1240 ( 67)
           0.1101 ( 72)  0.1693 ( 83) -0.1340 ( 85) -0.1129 ( 90)  0.1236 ( 93)
          -0.1797 ( 95)  0.1172 (104) -0.1533 (106) -0.1418 (111)  0.1887 (115)
          -0.2195 (117)  0.1068 (120)  0.1348 (122) -0.1555 (131)  0.1478 (132)
 CRD 46=   0.1237 (  4) -0.1750 (  7)  0.1500 ( 15) -0.1341 ( 17)  0.2521 ( 18)
          -0.1174 ( 19)  0.1290 ( 24)  0.3106 ( 38) -0.2726 ( 41) -0.1030 ( 54)
          -0.1101 ( 55) -0.1191 ( 59)  0.2170 ( 61) -0.1203 ( 75) -0.1779 ( 83)
           0.1408 ( 85) -0.2037 ( 93)  0.1150 ( 95)  0.1071 (104) -0.2933 (107)
           0.1515 (108)  0.1076 (109)  0.1329 (115) -0.1584 (117)  0.2021 (131)
          -0.1166 (132)
 CRD 47=   0.1571 (  4) -0.1929 (  6)  0.2306 ( 11)  0.1059 ( 13)  0.1108 ( 14)
          -0.1407 ( 16) -0.1111 ( 18)  0.1453 ( 19)  0.1027 ( 22) -0.1273 ( 29)
           0.1327 ( 32) -0.1057 ( 36)  0.1278 ( 41) -0.1369 ( 47)  0.1023 ( 52)
          -0.1496 ( 57)  0.1010 ( 60)  0.1056 ( 65) -0.1680 ( 71) -0.1170 ( 75)
          -0.1802 ( 85)  0.1859 ( 87) -0.1119 ( 88)  0.1618 ( 89) -0.1432 ( 95)
          -0.1200 ( 96) -0.1127 (102) -0.1245 (105)  0.1219 (106)  0.1576 (108)
           0.1715 (110) -0.1456 (113) -0.1638 (116)  0.1007 (118) -0.1262 (123)
           0.1901 (124) -0.1407 (131)  0.1184 (133)
 CRD 48=   0.1281 (  5)  0.3479 (  9) -0.1157 ( 10) -0.1316 ( 12) -0.1442 ( 15)
          -0.1170 ( 29) -0.1023 ( 32) -0.1036 ( 34)  0.1859 ( 36) -0.1248 ( 41)
           0.1391 ( 48) -0.1313 ( 53) -0.1445 ( 54)  0.1766 ( 56) -0.1089 ( 73)
          -0.1080 ( 75)  0.1190 ( 78) -0.1559 ( 81) -0.1055 ( 82)  0.1552 ( 90)
          -0.1162 ( 91)  0.1672 ( 92)  0.1073 (108)  0.1277 (109) -0.1291 (110)
           0.1136 (111) -0.2379 (113) -0.1173 (116)  0.1661 (119)  0.2561 (125)
 CRD 49=   0.2677 (  7) -0.1831 ( 10)  0.2128 ( 12) -0.2563 ( 13) -0.1204 ( 22)
          -0.1789 ( 25)  0.1997 ( 28) -0.1068 ( 32)  0.1328 ( 37)  0.1184 ( 38)
           0.1135 ( 49)  0.1850 ( 56) -0.2188 ( 57)  0.2251 ( 72) -0.1209 ( 90)
          -0.2182 (101)  0.1236 (119) -0.3151 (121)  0.3258 (122) -0.1458 (125)
 CRD 50=  -0.3990 (  5)  0.1765 (  6)  0.1507 (  9) -0.1213 ( 10)  0.1217 ( 13)
           0.1114 ( 26)  0.1341 ( 27)  0.1707 ( 31) -0.1227 ( 36)  0.1262 ( 41)
          -0.1902 ( 47) -0.2104 ( 55)  0.1087 ( 71) -0.1134 ( 80) -0.1524 ( 82)
           0.1423 ( 88) -0.1019 ( 96) -0.1188 (103)  0.1021 (104) -0.1054 (105)
          -0.1073 (109) -0.1477 (113)  0.1470 (116) -0.1739 (117) -0.1119 (118)
           0.2779 (119)  0.1337 (126)  0.1053 (129)  0.1003 (133)
 CRD 51=  -0.1077 (  4)  0.1646 (  7) -0.1349 (  8) -0.1593 ( 11)  0.1949 ( 13)
           0.1430 ( 14) -0.1996 ( 16)  0.1063 ( 23)  0.1572 ( 24) -0.1048 ( 27)
           0.1600 ( 33)  0.1405 ( 34) -0.1300 ( 48) -0.1108 ( 53) -0.1339 ( 65)
           0.1275 ( 66) -0.1415 ( 70) -0.1132 ( 73)  0.1773 ( 74)  0.1639 ( 78)
           0.1093 ( 79)  0.1554 ( 82) -0.1029 ( 92) -0.1142 ( 96)  0.1002 ( 99)
          -0.1446 (102) -0.1198 (105)  0.1074 (106)  0.1675 (108) -0.1515 (114)
          -0.1367 (115)  0.1321 (121)  0.1328 (122)  0.2540 (123)  0.1134 (133)
 CRD 52=   0.1382 (  4) -0.1788 (  8) -0.1138 ( 11) -0.1171 ( 13)  0.1859 ( 15)
           0.1035 ( 22) -0.1163 ( 23)  0.1177 ( 26)  0.1617 ( 30)  0.1098 ( 33)
          -0.1430 ( 37) -0.2394 ( 38)  0.2008 ( 41) -0.1068 ( 42) -0.1087 ( 48)
          -0.1561 ( 52)  0.1016 ( 54)  0.1045 ( 56) -0.1451 ( 66) -0.1173 ( 68)
          -0.1704 ( 70) -0.1105 ( 72) -0.1424 ( 75) -0.1543 ( 77)  0.1024 ( 79)
           0.2037 ( 86)  0.1101 ( 92)  0.2294 (107) -0.1252 (108) -0.2047 (113)
           0.1263 (115) -0.2071 (116)  0.1200 (121)  0.1009 (122)  0.2138 (123)
 CRD 53=  -0.1164 (  5) -0.1122 (  6) -0.1115 (  8)  0.1220 (  9)  0.1933 ( 13)
          -0.1053 ( 15)  0.1871 ( 16)  0.1128 ( 23) -0.2360 ( 24) -0.1438 ( 35)
          -0.1093 ( 36)  0.3639 ( 38) -0.2487 ( 41)  0.1952 ( 52)  0.1381 ( 69)
           0.1986 ( 73) -0.1079 ( 77) -0.1442 ( 80)  0.1434 ( 81) -0.1704 ( 87)
           0.1136 ( 98) -0.2111 (107)  0.1669 (114) -0.1301 (116)  0.1885 (117)
           0.1091 (123)
 CRD 54=  -0.2493 (  5) -0.1176 ( 13) -0.1843 ( 15) -0.4227 ( 16)  0.1217 ( 25)
          -0.2336 ( 28)  0.1361 ( 33)  0.2029 ( 36) -0.2412 ( 41) -0.3270 ( 51)
           0.1199 ( 54)  0.1394 ( 59)  0.1330 ( 61) -0.1619 ( 69)  0.1624 ( 79)
          -0.1673 ( 81) -0.2008 (107) -0.1651 (108) -0.1292 (109)  0.1081 (110)
           0.1040 (111)

 THE DETERMINANT OF THE G MATRIX IS 10**(   -13)


                     --------------------
                     INTERNAL COORDINATES
                     --------------------

                 - - ATOMS - -         COORDINATE      COORDINATE
 NO.   TYPE    I  J  K  L  M  N        (BOHR,RAD)       (ANG,DEG)
 ----------------------------------------------------------------
   1 STRETCH   4 17                     3.9291020       2.0791914
   2 STRETCH   5 18                     3.7943952       2.0079076
   3 STRETCH  17 18                     3.7477335       1.9832153
   4 STRETCH   1  8                     2.0986519       1.1105589
   5 STRETCH   1  4                     2.8863889       1.5274113
   6 STRETCH   1  7                     2.1001612       1.1113575
   7 STRETCH   1  2                     2.8889814       1.5287833
   8 STRETCH   2  9                     2.1083557       1.1156939
   9 STRETCH   2  3                     2.8661778       1.5167161
  10 STRETCH   2 10                     2.0984674       1.1104612
  11 STRETCH   3 12                     2.1037661       1.1132652
  12 STRETCH   3 11                     2.0983227       1.1103846
  13 STRETCH   3  5                     2.8346115       1.5000119
  14 STRETCH   4 13                     2.0922742       1.1071839
  15 STRETCH   4  5                     2.5725344       1.3613267
  16 STRETCH   5  6                     2.8456573       1.5058571
  17 STRETCH   6 15                     2.0973082       1.1098478
  18 STRETCH   6 14                     2.0973508       1.1098703
  19 STRETCH   6 16                     2.0978903       1.1101558
  20 STRETCH  17 20                     2.2382744       1.1844439
  21 STRETCH  17 19                     2.2356545       1.1830575
  22 BEND      1  2  9                  1.8909727     108.3447570
  23 BEND      1  4  5                  1.8737678     107.3589858
  24 BEND      1  4 17                  1.8406992     105.4642963
  25 BEND      1  2  3                  1.7748041     101.6887858
  26 BEND      1  4 13                  2.1966606     125.8593842
  27 BEND      1  2 10                  2.0019982     114.7060451
  28 BEND      2  3  5                  1.7336905      99.3331496
  29 BEND      2  1  8                  1.9465012     111.5263062
  30 BEND      2  1  7                  1.9086854     109.3596174
  31 BEND      2  1  4                  1.7821321     102.1086492
  32 BEND      2  3 11                  1.9971329     114.4272855
  33 BEND      2  3 12                  1.8886668     108.2126385
  34 BEND      3  2  9                  1.8792778     107.6746848
  35 BEND      3  5 18                  1.6712339      95.7546509
  36 BEND      3  5  4                  1.9311777     110.6483296
  37 BEND      3  2 10                  2.0156705     115.4894116
  38 BEND      3  5  6                  2.1775398     124.7638392
  39 BEND      4 17 18                  1.2882136      73.8091999
  40 BEND      4  5 18                  1.5839153      90.7516617
  41 BEND      4  5  6                  2.1591144     123.7081431
  42 BEND      4  1  8                  1.9886122     113.9390869
  43 BEND      4  1  7                  1.9244863     110.2649454
  44 BEND      4 17 19                  2.0495333     117.4296076
  45 BEND      4 17 20                  1.9326273     110.7313887
  46 BEND      5  4 17                  1.8567095     106.3816189
  47 BEND      5  4 13                  2.0497979     117.4447714
  48 BEND      5  3 11                  2.0085683     115.0824840
  49 BEND      5  3 12                  1.9112108     109.5043134
  50 BEND      5 18 17                  1.5466838      88.6184529
  51 BEND      5  6 16                  1.9131122     109.6132548
  52 BEND      5  6 14                  1.9246810     110.2760984
  53 BEND      5  6 15                  1.9290471     110.5262562
  54 BEND      6  5 18                  1.6195842      92.7953366
  55 BEND      7  1  8                  1.9095421     109.4087047
  56 BEND      9  2 10                  1.8933628     108.4816969
  57 BEND     11  3 12                  1.9149159     109.7166002
  58 BEND     13  4 17                  1.5715646      90.0440168
  59 BEND     14  6 16                  1.8977222     108.7314738
  60 BEND     14  6 15                  1.8996328     108.8409402
  61 BEND     15  6 16                  1.8991403     108.8127243
  62 BEND     18 17 19                  2.0317444     116.4103781
  63 BEND     18 17 20                  2.0356292     116.6329633
  64 BEND     19 17 20                  2.0120399     115.2813971
  65 TORSION   1  4  5  3              -0.1859050     -10.6515727
  66 TORSION   1  4 17 19              -0.0643924      -3.6894119
  67 TORSION   1  4 17 20              -2.4259803    -138.9984304
  68 TORSION   1  4 17 18               1.8866384     108.0964168
  69 TORSION   1  4  5  6               2.7759129     159.0480929
  70 TORSION   1  2  3  5              -0.7346043     -42.0897276
  71 TORSION   1  2  3 11              -2.8835717    -165.2164910
  72 TORSION   1  2  3 12               1.2589502      72.1325344
  73 TORSION   1  4  5 18              -1.8690427    -107.0882609
  74 TORSION   2  3  5  4               0.5901576      33.8135375
  75 TORSION   2  1  4 13               2.2396754     128.3239469
  76 TORSION   2  1  4 17              -2.2703874    -130.0836179
  77 TORSION   2  1  4  5              -0.2956207     -16.9378173
  78 TORSION   2  3  5 18               2.2130441     126.7980880
  79 TORSION   2  3  5  6              -2.3693667    -135.7547098
  80 TORSION   3  5  4 13              -2.7801924    -159.2932921
  81 TORSION   3  5 18 17              -2.0299937    -116.3100706
  82 TORSION   3  2  1  7              -1.3928631     -79.8051755
  83 TORSION   3  5  6 16               1.9735914     113.0784593
  84 TORSION   3  5  6 14              -0.1151326      -6.5966144
  85 TORSION   3  5  6 15              -2.2163942    -126.9900329
  86 TORSION   3  2  1  4               0.6456562      36.9933780
  87 TORSION   3  5  4 17               1.7780143     101.8727166
  88 TORSION   3  2  1  8               2.7759239     159.0487255
  89 TORSION   4  5  3 11               2.7309721     156.4731729
  90 TORSION   4  5  3 12              -1.3858718     -79.4046026
  91 TORSION   4  1  2 10               2.8338563     162.3680082
  92 TORSION   4  1  2  9              -1.3314712     -76.2876820
  93 TORSION   4  5  6 16              -0.9628900     -55.1695328
  94 TORSION   4  5  6 14              -3.0516141    -174.8446064
  95 TORSION   4  5  6 15               1.1303097      64.7619750
  96 TORSION   4  5 18 17              -0.0954596      -5.4694340
  97 TORSION   4 17 18  5               0.0650238       3.7255884
  98 TORSION   5  3  2 10              -2.9136971    -166.9425478
  99 TORSION   5 18 17 19               2.0379547     116.7662046
 100 TORSION   5 18 17 20              -1.7757947    -101.7455392
 101 TORSION   5  3  2  9               1.2512545      71.6916000
 102 TORSION   5  4 17 20               1.8705335     107.1736740
 103 TORSION   5  4 17 19              -2.0510639    -117.5173074
 104 TORSION   5  4  1  7               1.7314666      99.2057307
 105 TORSION   5  4 17 18              -0.1000332      -5.7314787
 106 TORSION   5  4  1  8              -2.3967775    -137.3252366
 107 TORSION   6  5 18 17               2.0652779     118.3317096
 108 TORSION   6  5  4 17              -1.5433531     -88.4276177
 109 TORSION   6  5  4 13               0.1816255      10.4063736
 110 TORSION   6  5  3 11              -0.2285522     -13.0950744
 111 TORSION   6  5  3 12               1.9377893     111.0271501
 112 TORSION   7  1  2  9               2.9131948     166.9137645
 113 TORSION   7  1  2 10               0.7953370      45.5694547
 114 TORSION   7  1  4 13              -2.0164226    -115.5325051
 115 TORSION   7  1  4 17              -0.2433001     -13.9400699
 116 TORSION   8  1  2 10              -1.3190613     -75.5766443
 117 TORSION   8  1  4 13               0.1385185       7.9365276
 118 TORSION   8  1  4 17               1.9116410     109.5289629
 119 TORSION   8  1  2  9               0.7987965      45.7676655
 120 TORSION   9  2  3 12              -3.0383763    -174.0861381
 121 TORSION   9  2  3 11              -0.8977130     -51.4351634
 122 TORSION  10  2  3 12              -0.9201426     -52.7202858
 123 TORSION  10  2  3 11               1.2205208      69.9306889
 124 TORSION  11  3  5 18              -1.9293267    -110.5422766
 125 TORSION  12  3  5 18               0.2370148      13.5799479
 126 TORSION  13  4 17 20              -0.2016259     -11.5523109
 127 TORSION  13  4 17 19               2.1599620     123.7567077
 128 TORSION  13  4  5 18               1.8198552     104.2700198
 129 TORSION  13  4 17 18              -2.1721925    -124.4574637
 130 TORSION  14  6  5 18               1.6123940      92.3833740
 131 TORSION  15  6  5 18              -0.4888675     -28.0100446
 132 TORSION  16  6  5 18              -2.5820672    -147.9415524
 133 TORSION  17  4  5 18               0.0948766       5.4360285

     ------------------------------------------
     THE POINT GROUP IS C1 , NAXIS= 0, ORDER= 1
     ------------------------------------------

     DIMENSIONS OF THE SYMMETRY SUBSPACES ARE
 A   =   48

 ..... DONE SETTING UP THE RUN .....
 STEP CPU TIME =     0.05 TOTAL CPU TIME =          0.0 (      0.0 MIN)
 TOTAL WALL CLOCK TIME=          0.1 SECONDS, CPU UTILIZATION IS    71.43%


          -----------------------------
          STATIONARY POINT LOCATION RUN
          -----------------------------


           ** GEOMETRY CONSTRAINTS ARE BEING APPLIED. **

          TRANSFORMING DISPLACEMENT FROM INTERNALS TO CARTESIANS
          THE ROOT MEAN SQUARE ERROR IN ITERATION   1 IS   0.00000209
          THE ROOT MEAN SQUARE ERROR IN ITERATION   2 IS   0.00000000
 WARNING! THE RADIUS IN CARTESIANS IS    0.00801
 OBTAINING INITIAL HESSIAN, HESS=CALC    

     ---------------------------------
     HESSIAN MATRIX CONTROL PARAMETERS
     ---------------------------------
     METHOD=ANALYTIC   NVIB  =       2   VIBSIZ= 0.01000
     RDHESS=       F   PURIFY=       F   PRTIFC=       F
     VIBANL=       F   DECOMP=       F   PROJCT=       F
     SCLFAC= 1.00000   PRTSCN=       F   NPRT  =       0
     PULCOR=       F   NPUN  =       0   REDOVB=       T
     HSSTYP=GENERAL 
 Old integral subroutine is used

     ------------------------------
     CPHF RESPONSE SOLUTION OPTIONS
     ------------------------------
     POLAR  =       F     NWORD  =       0
     CPHF   =AO      

          ********************
          1 ELECTRON INTEGRALS
          ********************
 ...... END OF ONE-ELECTRON INTEGRALS ......
 STEP CPU TIME =     0.03 TOTAL CPU TIME =          0.1 (      0.0 MIN)
 TOTAL WALL CLOCK TIME=          0.1 SECONDS, CPU UTILIZATION IS    72.73%

          -------------
          GUESS OPTIONS
          -------------
          GUESS =HUCKEL            NORB  =       0          NORDER=       0
          MIX   =       F          PRTMO =       F          PUNMO =       F
          TOLZ  = 1.0E-08          TOLE  = 1.0E-05
          SYMDEN=       F          PURIFY=       F

 INITIAL GUESS ORBITALS GENERATED BY HUCKEL   ROUTINE.
 HUCKEL GUESS REQUIRES     39252 WORDS.

 SYMMETRIES FOR INITIAL GUESS ORBITALS FOLLOW.   BOTH SET(S).
    27 ORBITALS ARE OCCUPIED (    7 CORE ORBITALS).
     8=A        9=A       10=A       11=A       12=A       13=A       14=A   
    15=A       16=A       17=A       18=A       19=A       20=A       21=A   
    22=A       23=A       24=A       25=A       26=A       27=A       28=A   
    29=A       30=A       31=A       32=A       33=A       34=A       35=A   
    36=A       37=A   
 ...... END OF INITIAL ORBITAL SELECTION ......
 STEP CPU TIME =     0.02 TOTAL CPU TIME =          0.1 (      0.0 MIN)
 TOTAL WALL CLOCK TIME=          0.1 SECONDS, CPU UTILIZATION IS    76.92%

                    ----------------------
                    AO INTEGRAL TECHNOLOGY
                    ----------------------
     S,P,L SHELL ROTATED AXIS INTEGRALS, REPROGRAMMED BY
        KAZUYA ISHIMURA (IMS) AND JOSE SIERRA (SYNSTAR).
     S,P,D,L SHELL ROTATED AXIS INTEGRALS PROGRAMMED BY
        KAZUYA ISHIMURA (INSTITUTE FOR MOLECULAR SCIENCE).
     S,P,D,F,G SHELL TO TOTAL QUARTET ANGULAR MOMENTUM SUM 5,
        ERIC PROGRAM BY GRAHAM FLETCHER (ELORET AND NASA ADVANCED
        SUPERCOMPUTING DIVISION, AMES RESEARCH CENTER).
     S,P,D,F,G,L SHELL GENERAL RYS QUADRATURE PROGRAMMED BY
        MICHEL DUPUIS (PACIFIC NORTHWEST NATIONAL LABORATORY).

          --------------------
          2 ELECTRON INTEGRALS
          --------------------

 THE -PK- OPTION IS OFF, THE INTEGRALS ARE NOT IN SUPERMATRIX FORM.
 STORING   15000 INTEGRALS/RECORD ON DISK, USING 12 BYTES/INTEGRAL.
 TWO ELECTRON INTEGRAL EVALUATION REQUIRES   89734 WORDS OF MEMORY.
 SCHWARZ INEQUALITY OVERHEAD:      1167 INTEGRALS, T=        0.00
 II,JST,KST,LST =  1  1  1  1 NREC =         1 INTLOC =    1
 II,JST,KST,LST =  2  1  1  1 NREC =         1 INTLOC =    2
 II,JST,KST,LST =  3  1  1  1 NREC =         1 INTLOC =   34
 II,JST,KST,LST =  4  1  1  1 NREC =         1 INTLOC =  142
 II,JST,KST,LST =  5  1  1  1 NREC =         1 INTLOC = 1362
 II,JST,KST,LST =  6  1  1  1 NREC =         1 INTLOC = 1943
 II,JST,KST,LST =  7  1  1  1 NREC =         1 INTLOC = 6820
 II,JST,KST,LST =  8  1  1  1 NREC =         1 INTLOC = 8506
 II,JST,KST,LST =  9  1  1  1 NREC =         2 INTLOC = 5952
 II,JST,KST,LST = 10  1  1  1 NREC =         2 INTLOC = 9938
 II,JST,KST,LST = 11  1  1  1 NREC =         4 INTLOC = 5423
 II,JST,KST,LST = 12  1  1  1 NREC =         4 INTLOC =12281
 II,JST,KST,LST = 13  1  1  1 NREC =         7 INTLOC =11897
 II,JST,KST,LST = 14  1  1  1 NREC =         8 INTLOC =11250
 II,JST,KST,LST = 15  1  1  1 NREC =         9 INTLOC =11944
 II,JST,KST,LST = 16  1  1  1 NREC =        10 INTLOC =14507
 II,JST,KST,LST = 17  1  1  1 NREC =        12 INTLOC = 3373
 II,JST,KST,LST = 18  1  1  1 NREC =        13 INTLOC = 9303
 II,JST,KST,LST = 19  1  1  1 NREC =        15 INTLOC = 2153
 II,JST,KST,LST = 20  1  1  1 NREC =        16 INTLOC =11921
 II,JST,KST,LST = 21  1  1  1 NREC =        18 INTLOC = 8431
 II,JST,KST,LST = 22  1  1  1 NREC =        20 INTLOC = 6917
 II,JST,KST,LST = 23  1  1  1 NREC =        22 INTLOC = 8015
 II,JST,KST,LST = 24  1  1  1 NREC =        24 INTLOC = 3483
 II,JST,KST,LST = 25  1  1  1 NREC =        34 INTLOC =12920
 II,JST,KST,LST = 26  1  1  1 NREC =        38 INTLOC =  396
 II,JST,KST,LST = 27  1  1  1 NREC =        41 INTLOC = 4389
 SCHWARZ INEQUALITY TEST SKIPPED        8507 INTEGRAL BLOCKS.
 TOTAL NUMBER OF NONZERO TWO-ELECTRON INTEGRALS =              655814
         44 INTEGRAL RECORDS WERE STORED ON DISK FILE  8.
  ...... END OF TWO-ELECTRON INTEGRALS .....
 STEP CPU TIME =     0.18 TOTAL CPU TIME =          0.3 (      0.0 MIN)
 TOTAL WALL CLOCK TIME=          0.3 SECONDS, CPU UTILIZATION IS    84.85%

          --------------------------
                 RHF SCF CALCULATION
          --------------------------

     NUCLEAR ENERGY =       301.9111830817
     MAXIT =   30     NPUNCH=    2
     EXTRAP=T  DAMP=F  SHIFT=F  RSTRCT=F  DIIS=F  DEM=F  SOSCF=T
     DENSITY MATRIX CONV=  1.00E-05
     SOSCF WILL OPTIMIZE     567 ORBITAL ROTATIONS, SOGTOL=   0.250
     MEMORY REQUIRED FOR RHF ITERS=     49068 WORDS.

 ITER EX DEM     TOTAL ENERGY        E CHANGE  DENSITY CHANGE     ORB. GRAD
   1  0  0     -255.6936228094  -255.6936228094   0.309608116   0.000000000
          ---------------START SECOND ORDER SCF---------------
   2  1  0     -256.0591763500    -0.3655535406   0.137029432   0.035189897
   3  2  0     -256.0815019432    -0.0223255932   0.047340946   0.019638609
   4  3  0     -256.0861994286    -0.0046974853   0.013381068   0.004170681
   5  4  0     -256.0865541987    -0.0003547701   0.016733540   0.002324897
   6  5  0     -256.0867009669    -0.0001467682   0.015821358   0.001269658
   7  6  0     -256.0867671573    -0.0000661903   0.003767181   0.000381598
   8  7  0     -256.0867761599    -0.0000090027   0.001195526   0.000141738
   9  8  0     -256.0867774432    -0.0000012832   0.000361613   0.000064863
  10  9  0     -256.0867775682    -0.0000001251   0.000101249   0.000018327
  11 10  0     -256.0867775852    -0.0000000169   0.000029892   0.000008381
  12 11  0     -256.0867775867    -0.0000000015   0.000011395   0.000002611
  13 12  0     -256.0867775868    -0.0000000002   0.000002025   0.000000502
  14 13  0     -256.0867775868    -0.0000000000   0.000000659   0.000000151

          -----------------
          DENSITY CONVERGED
          -----------------
     TIME TO FORM FOCK OPERATORS=       0.1 SECONDS (       0.0 SEC/ITER)
     TIME TO SOLVE SCF EQUATIONS=       0.1 SECONDS (       0.0 SEC/ITER)

 FINAL RHF ENERGY IS     -256.0867775868 AFTER  14 ITERATIONS

          ------------
          EIGENVECTORS
          ------------

                      1          2          3          4          5
                  -11.1401   -11.0815   -11.0771   -11.0594   -11.0497
                     A          A          A          A          A   
    1  C  1  S   -0.000390  -0.000143  -0.002055  -0.012572   0.991894
    2  C  1  S    0.000153  -0.000062  -0.000072  -0.006208   0.037011
    3  C  1  X   -0.000002  -0.000024  -0.000109   0.001460   0.000153
    4  C  1  Y    0.000162   0.000053   0.000277   0.003085  -0.000609
    5  C  1  Z    0.000004  -0.000015  -0.000244   0.002531  -0.000076
    6  C  2  S   -0.000769   0.000075  -0.005740   0.991854   0.013526
    7  C  2  S   -0.000026   0.000012  -0.006072   0.037203  -0.005285
    8  C  2  X   -0.000565   0.000010  -0.002017   0.000863  -0.001256
    9  C  2  Y   -0.000123  -0.000010   0.003477  -0.000050  -0.003257
   10  C  2  Z   -0.000029  -0.000009  -0.001561   0.000147  -0.002470
   11  C  3  S   -0.001037  -0.001776   0.991890   0.006658   0.002263
   12  C  3  S   -0.005760   0.000050   0.037578  -0.005621   0.000007
   13  C  3  X   -0.003762   0.000093   0.000443   0.002281  -0.000027
   14  C  3  Y   -0.001667  -0.000097   0.001087  -0.003247  -0.000302
   15  C  3  Z   -0.000522  -0.000051   0.000212   0.001724  -0.000242
   16  C  4  S    0.002251  -0.000146  -0.000383  -0.000619  -0.002184
   17  C  4  S   -0.007278   0.000178   0.000219   0.000200  -0.005876
   18  C  4  X   -0.000578   0.000116  -0.000005  -0.000031   0.004086
   19  C  4  Y    0.004277   0.000035   0.000020   0.000062  -0.001063
   20  C  4  Z    0.001191  -0.000054  -0.000098   0.000139   0.000626
   21  C  5  S    0.992336   0.002429   0.001972   0.000932   0.000483
   22  C  5  S    0.035076  -0.005965  -0.006167  -0.000108   0.000270
   23  C  5  X   -0.000683  -0.003917   0.003943   0.000233   0.000047
   24  C  5  Y    0.001543   0.001871   0.002044  -0.000264   0.000047
   25  C  5  Z    0.000157   0.001098   0.000598   0.000213  -0.000034
   26  C  6  S   -0.001479   0.991980   0.001780  -0.000070   0.000159
   27  C  6  S   -0.005565   0.037388   0.000244  -0.000043  -0.000067
   28  C  6  X    0.003542  -0.000385  -0.000109   0.000016   0.000030
   29  C  6  Y   -0.001768   0.000226  -0.000115   0.000018  -0.000052
   30  C  6  Z   -0.000922  -0.000009  -0.000026  -0.000074  -0.000027
   31  H  7  S   -0.000000   0.000006   0.000088   0.000103  -0.006758
   32  H  8  S   -0.000063  -0.000008  -0.000147   0.000198  -0.006694
   33  H  9  S   -0.000197   0.000017   0.000050  -0.006784  -0.000063
   34  H 10  S   -0.000209   0.000002   0.000168  -0.006647   0.000032
   35  H 11  S    0.000053  -0.000028  -0.006660   0.000080  -0.000176
   36  H 12  S   -0.000041   0.000022  -0.006758  -0.000040  -0.000013
   37  H 13  S    0.000078  -0.000171  -0.000089  -0.000012   0.000067
   38  H 14  S   -0.000019  -0.006723  -0.000140  -0.000011  -0.000008
   39  H 15  S   -0.000019  -0.006691  -0.000021   0.000013  -0.000009
   40  H 16  S   -0.000103  -0.006757  -0.000007  -0.000000   0.000003
   41  B 17  S    0.000008  -0.000009  -0.000007   0.000004   0.000014
   42  B 17  S    0.000110   0.000044   0.000033  -0.000032  -0.000005
   43  B 17  X   -0.000031   0.000021  -0.000023  -0.000012   0.000089
   44  B 17  Y    0.000049  -0.000038  -0.000019  -0.000026  -0.000054
   45  B 17  Z    0.000125  -0.000028  -0.000021   0.000032  -0.000041
   46  H 18  S   -0.001801  -0.000040   0.000043  -0.000024   0.000015
   47  H 19  S   -0.000059   0.000005  -0.000002  -0.000005   0.000156
   48  H 20  S   -0.000018   0.000010   0.000003   0.000013  -0.000023

                      6          7          8          9         10
                  -10.9962    -7.3822    -1.1349    -0.9979    -0.9349
                     A          A          A          A          A   
    1  C  1  S    0.003154   0.000027  -0.082716   0.085750   0.107296
    2  C  1  S   -0.005635   0.000215   0.210657  -0.236111  -0.309623
    3  C  1  X   -0.004073  -0.000179   0.027265   0.024899  -0.069550
    4  C  1  Y    0.001035  -0.000056  -0.049232   0.040346  -0.014497
    5  C  1  Z   -0.000453  -0.000074  -0.014960   0.028944  -0.023666
    6  C  2  S    0.000733   0.000004  -0.092991   0.111608  -0.053689
    7  C  2  S    0.000152  -0.000051   0.237100  -0.310318   0.154109
    8  C  2  X   -0.000281  -0.000036   0.051419  -0.022714   0.008154
    9  C  2  Y    0.000043  -0.000058  -0.009178  -0.014144  -0.113997
   10  C  2  Z    0.000015   0.000011   0.036911  -0.029143  -0.013797
   11  C  3  S    0.000458  -0.000008  -0.112227   0.036679  -0.145635
   12  C  3  S    0.000223   0.000037   0.291272  -0.098903   0.424087
   13  C  3  X    0.000088   0.000008   0.034750   0.073727  -0.010209
   14  C  3  Y   -0.000112  -0.000016   0.067706  -0.041762  -0.004880
   15  C  3  Z   -0.000122   0.000045  -0.002044   0.019728  -0.021748
   16  C  4  S    0.991954   0.000533  -0.103678  -0.021793   0.138018
   17  C  4  S    0.037078  -0.003014   0.252942   0.060350  -0.380507
   18  C  4  X    0.000011  -0.000261  -0.029607   0.066541   0.031207
   19  C  4  Y   -0.002447  -0.000149  -0.071322  -0.058228   0.007437
   20  C  4  Z   -0.001553  -0.002928  -0.030747  -0.005716   0.020379
   21  C  5  S   -0.001589   0.000030  -0.139070  -0.103134   0.005252
   22  C  5  S   -0.008165   0.000070   0.361592   0.292166  -0.012746
   23  C  5  X    0.000360  -0.000036  -0.053410   0.120860  -0.054250
   24  C  5  Y   -0.004826  -0.000073   0.042819  -0.019161  -0.180653
   25  C  5  Z   -0.001103   0.000083  -0.006725  -0.017193  -0.049555
   26  C  6  S    0.000166  -0.000013  -0.053475  -0.154980  -0.029445
   27  C  6  S    0.000286   0.000085   0.143804   0.434740   0.085069
   28  C  6  X   -0.000099   0.000003  -0.041396  -0.046364  -0.011280
   29  C  6  Y    0.000017  -0.000025   0.020289   0.027659  -0.021748
   30  C  6  Z    0.000001   0.000060   0.008611   0.009593  -0.007135
   31  H  7  S    0.000001  -0.000742   0.036940  -0.055008  -0.077116
   32  H  8  S    0.000017  -0.000026   0.032750  -0.053539  -0.083819
   33  H  9  S   -0.000098  -0.000008   0.046315  -0.070792   0.040503
   34  H 10  S   -0.000146   0.000003   0.036828  -0.071906   0.045404
   35  H 11  S   -0.000107   0.000001   0.048126  -0.016444   0.129517
   36  H 12  S   -0.000014  -0.000045   0.052392  -0.026882   0.107300
   37  H 13  S   -0.006591  -0.000592   0.042257   0.023902  -0.105626
   38  H 14  S   -0.000084  -0.000001   0.025301   0.101731   0.037989
   39  H 15  S   -0.000015  -0.000131   0.024277   0.101402   0.016353
   40  H 16  S   -0.000062   0.000021   0.026780   0.107469   0.017517
   41  B 17  S    0.000410   0.991083  -0.007642  -0.003373   0.017306
   42  B 17  S   -0.002696   0.035272   0.015645   0.007808  -0.037921
   43  B 17  X    0.000441   0.000035  -0.001641   0.001630   0.003986
   44  B 17  Y    0.000238   0.001807  -0.000535  -0.002653  -0.004525
   45  B 17  Z    0.002638   0.000250  -0.008471  -0.004101   0.017581
   46  H 18  S    0.000019  -0.002537   0.007830   0.010907  -0.002966
   47  H 19  S    0.000153  -0.006342   0.002931  -0.000285  -0.011274
   48  H 20  S    0.000277  -0.006387   0.002496   0.002475  -0.010388

                     11         12         13         14         15
                   -0.8841    -0.7643    -0.6874    -0.6385    -0.6290
                     A          A          A          A          A   
    1  C  1  S   -0.091432   0.113180  -0.026855  -0.019229   0.006930
    2  C  1  S    0.269260  -0.355423   0.083076   0.064482  -0.024176
    3  C  1  X   -0.080474   0.012254  -0.085192   0.037701   0.215543
    4  C  1  Y   -0.004238  -0.093646  -0.037581   0.222270  -0.075138
    5  C  1  Z   -0.043020  -0.102645  -0.063728  -0.113721  -0.085701
    6  C  2  S   -0.097859  -0.120053   0.000445   0.011215   0.016122
    7  C  2  S    0.292068   0.380618  -0.001515  -0.037093  -0.054019
    8  C  2  X   -0.032632  -0.047839   0.077689   0.036237   0.273014
    9  C  2  Y    0.080264  -0.029951   0.133997   0.041665  -0.035266
   10  C  2  Z   -0.003200  -0.136021   0.005219  -0.220220  -0.018084
   11  C  3  S    0.066339   0.071506   0.056237  -0.009581  -0.015827
   12  C  3  S   -0.196075  -0.227216  -0.188698   0.033070   0.048582
   13  C  3  X   -0.076889  -0.062107   0.226489   0.129178   0.012579
   14  C  3  Y    0.013886   0.115160   0.157456  -0.197566   0.107019
   15  C  3  Z   -0.041604  -0.093963   0.007245  -0.233459  -0.107972
   16  C  4  S    0.071172  -0.039286   0.091520  -0.009429  -0.034228
   17  C  4  S   -0.195300   0.110142  -0.301784   0.042743   0.106947
   18  C  4  X   -0.042975   0.134995  -0.121703   0.090516  -0.140951
   19  C  4  Y    0.090301  -0.089862  -0.179651   0.164709   0.056005
   20  C  4  Z    0.007779  -0.041782  -0.057230  -0.070427  -0.115376
   21  C  5  S    0.074986  -0.025352  -0.107982  -0.016984   0.064608
   22  C  5  S   -0.226117   0.077993   0.366075   0.069052  -0.230216
   23  C  5  X    0.151632   0.084252  -0.070666   0.100969  -0.216315
   24  C  5  Y   -0.100160   0.174386  -0.089009  -0.144683   0.104751
   25  C  5  Z   -0.042919   0.010277  -0.061976  -0.141831  -0.077048
   26  C  6  S   -0.136950   0.015647   0.024976   0.021817  -0.024110
   27  C  6  S    0.404914  -0.049982  -0.080676  -0.077166   0.083922
   28  C  6  X    0.048932  -0.004862  -0.166474  -0.190439   0.206085
   29  C  6  Y   -0.024722   0.066449   0.020474   0.020080  -0.104146
   30  C  6  Z   -0.020023   0.012703   0.015895  -0.039887  -0.171651
   31  H  7  S    0.078712  -0.175386   0.017243  -0.066365  -0.150740
   32  H  8  S    0.092549  -0.145791   0.033415   0.203078  -0.052169
   33  H  9  S    0.087198   0.194293   0.029222   0.162620   0.057092
   34  H 10  S    0.099492   0.164636  -0.060796  -0.039517  -0.220331
   35  H 11  S   -0.050526  -0.105046  -0.164202   0.234694   0.006868
   36  H 12  S   -0.060558  -0.127994  -0.151510  -0.144927  -0.081090
   37  H 13  S   -0.050741   0.073006  -0.260147   0.143138   0.004921
   38  H 14  S    0.130034  -0.061308  -0.035788  -0.007823   0.126452
   39  H 15  S    0.123413  -0.011231  -0.093700  -0.138265   0.023696
   40  H 16  S    0.131657  -0.000973  -0.084838  -0.059023   0.162791
   41  B 17  S    0.009775   0.000559   0.061660   0.016990   0.075231
   42  B 17  S   -0.022768  -0.001705  -0.150994  -0.044866  -0.191412
   43  B 17  X    0.000076   0.012992  -0.008178   0.014453  -0.004824
   44  B 17  Y    0.001472  -0.002029  -0.030697   0.009384  -0.012732
   45  B 17  Z    0.011359  -0.005854   0.020156  -0.001942  -0.010930
   46  H 18  S   -0.011080  -0.004085  -0.007436  -0.029824  -0.074573
   47  H 19  S   -0.003681  -0.011691  -0.065313  -0.029085  -0.104415
   48  H 20  S   -0.006274   0.005070  -0.081540  -0.010079  -0.103190

                     16         17         18         19         20
                   -0.5995    -0.5627    -0.5524    -0.5311    -0.5014
                     A          A          A          A          A   
    1  C  1  S    0.013080   0.004402   0.014929   0.009018  -0.006854
    2  C  1  S   -0.045008  -0.014549  -0.049626  -0.031429   0.027999
    3  C  1  X    0.068493   0.078129   0.024157   0.011510  -0.040891
    4  C  1  Y   -0.050798   0.042427  -0.088957   0.105629  -0.141732
    5  C  1  Z    0.018577  -0.115168   0.107544  -0.346388  -0.026176
    6  C  2  S   -0.010235  -0.003744  -0.013583  -0.002592  -0.022056
    7  C  2  S    0.035131   0.012836   0.046740   0.009313   0.086043
    8  C  2  X    0.121959   0.007048  -0.195121   0.002737   0.244431
    9  C  2  Y    0.010983   0.065103  -0.032125   0.177483  -0.087589
   10  C  2  Z   -0.092258  -0.084672   0.075593   0.008172   0.270590
   11  C  3  S    0.014031   0.002967   0.020867  -0.006028  -0.015677
   12  C  3  S   -0.051645  -0.011851  -0.074358   0.020019   0.064253
   13  C  3  X    0.137523   0.025138   0.022320   0.006125  -0.089865
   14  C  3  Y    0.100298  -0.038390   0.037191   0.040527   0.277151
   15  C  3  Z   -0.082117   0.095982   0.057968   0.393547  -0.052663
[...]
 19   H            X -0.00529541  0.00267315 -0.00221319 -0.62224911  0.58821224
                   Y  0.00927473 -0.00202973  0.00042800  0.07078201 -0.06790900
                   Z -0.01063394  0.00229373 -0.00012828  0.29657924 -0.27908735
 20   H            X  0.00125737 -0.00020841  0.00095774  0.63012876  0.59365619
                   Y  0.00769874 -0.00499464  0.00163632  0.22645702  0.21401429
                   Z -0.01011440  0.00691464 -0.00708764  0.18181899  0.17040413

 TRANS. SAYVETZ    X  0.00000010 -0.00000005 -0.00000053  0.00000019  0.00000004
                   Y -0.00000049  0.00000019 -0.00000013  0.00000011 -0.00000001
                   Z -0.00000104  0.00000019 -0.00000030 -0.00000035 -0.00000001
               TOTAL  0.00000115  0.00000027  0.00000062  0.00000041  0.00000005

   ROT. SAYVETZ    X -0.00691862 -0.00481384  0.00718233 -0.00535232  0.00507065
                   Y  0.00348667  0.00032793 -0.00177188 -0.00054222 -0.02177205
                   Z  0.00229348 -0.00004867 -0.00045235  0.00041464  0.02596511
               TOTAL  0.00807986  0.00482524  0.00741148  0.00539568  0.03426253

                           51          52          53          54          55
       FREQUENCY:      3565.89     3608.68     3619.95     3629.32     3720.16  
        SYMMETRY:         A           A           A           A           A   
    REDUCED MASS:      1.03937     1.06619     1.06701     1.06902     1.11100
    IR INTENSITY:      0.01009     0.06465     0.06055     0.01808     0.00700

  1   C            X -0.00006024  0.03164490 -0.00596431 -0.00282495  0.02503007
                   Y  0.00008446 -0.06063247  0.01464746  0.00599343  0.02275591
                   Z -0.00000927 -0.00722252  0.00444936  0.00207922 -0.08432438
  2   C            X -0.00005932 -0.01254175 -0.04781952 -0.01728084 -0.00960134
                   Y -0.00000365  0.00067366 -0.00828072 -0.00041308 -0.00124614
                   Z -0.00001786 -0.00920239 -0.04331270 -0.01756007  0.00914014
  3   C            X -0.00015204  0.00043952  0.00565484 -0.01182845 -0.00019047
                   Y -0.00010588 -0.00059384  0.02256507 -0.06631441 -0.00078799
                   Z  0.00002372  0.00054381  0.00165242  0.00288548  0.00044491
  4   C            X  0.00008327  0.00011027 -0.00036666 -0.00008964 -0.00256858
                   Y  0.00031273  0.00249488 -0.00059533 -0.00042767 -0.00264486
                   Z  0.00010081 -0.00032753  0.00025289  0.00014563  0.00127834
  5   C            X -0.00251291 -0.00040138 -0.00034269  0.00205211  0.00018610
                   Y  0.00134746  0.00014083 -0.00081206  0.00132315  0.00026032
                   Z  0.00058786 -0.00017048  0.00005527  0.00030199 -0.00010865
  6   C            X  0.04167858  0.00009550 -0.00005823 -0.00002565  0.00016964
                   Y -0.01642148  0.00001524 -0.00001212  0.00018623  0.00002717
                   Z -0.02730086 -0.00000781 -0.00001774  0.00023851  0.00022450
  7   H            X  0.00091459 -0.33350182  0.08094182  0.03419958 -0.31848937
                   Y -0.00050090  0.22214958 -0.05101903 -0.02178402  0.21720306
                   Z -0.00113261  0.54683098 -0.12932589 -0.05472645  0.51308721
  8   H            X -0.00018393 -0.01976792  0.00234468  0.00118464  0.02457859
                   Y -0.00033959  0.45531200 -0.09019979 -0.03252400 -0.48110431
                   Z  0.00040534 -0.46315388  0.09273149  0.03407713  0.47874247
  9   H            X -0.00003673 -0.00543360 -0.02508293 -0.01060548  0.00421290
                   Y  0.00002414  0.00521662  0.00858459  0.00608774  0.00171444
                   Z  0.00048683  0.15707391  0.66039474  0.24689707 -0.06854543
 10   H            X  0.00090264  0.15174307  0.55594874  0.18679976  0.10434461
                   Y  0.00009063  0.01767496  0.06765555  0.02195217  0.01127747
                   Z -0.00029808 -0.04661183 -0.17512364 -0.06010384 -0.03167805
 11   H            X -0.00035185 -0.00156665  0.03656296 -0.10055319 -0.00009187
                   Y  0.00165726  0.00425289 -0.19022772  0.50227301  0.00164048
                   Z  0.00141846  0.00375169 -0.17432886  0.46440296  0.00183107
 12   H            X  0.00080901  0.00274967 -0.07751005  0.23340127  0.00341619
                   Y  0.00062798  0.00175997 -0.07909275  0.22769693  0.00385988
                   Z -0.00096285 -0.00464330  0.16749530 -0.48862479 -0.00773243
 13   H            X -0.00343895 -0.02162619  0.00952564  0.00746101  0.02995924
                   Y -0.00308701 -0.01856202  0.00721282  0.00720820  0.02655841
                   Z  0.00096527  0.00327969 -0.00185784 -0.00189553 -0.00775010
 14   H            X -0.01604657 -0.00012727 -0.00001975 -0.00011346  0.00004397
                   Y  0.49923447  0.00073873  0.00008976 -0.00200403  0.00066768
                   Z -0.10483968  0.00004584  0.00002025  0.00039774 -0.00016487
 15   H            X -0.40458117 -0.00037504  0.00012665  0.00035389 -0.00237886
                   Y -0.23375936 -0.00038183  0.00002006  0.00046606 -0.00133250
                   Z -0.22861619 -0.00030211 -0.00001711  0.00042915 -0.00124334
 16   H            X -0.04103812 -0.00001589  0.00010987 -0.00003468  0.00016340
                   Y -0.08802709 -0.00008101  0.00004328  0.00034247  0.00021565
                   Z  0.64715933  0.00047505 -0.00041887 -0.00195014 -0.00179776
 17   B            X -0.00014291 -0.00010832 -0.00001116  0.00032446  0.00016679
                   Y  0.00008404  0.00011928 -0.00003857 -0.00010088  0.00004831
                   Z  0.00004734 -0.00026801  0.00007632  0.00013958 -0.00017617
 18   H            X -0.00009283 -0.00002642 -0.00096600  0.00334776 -0.00013466
                   Y -0.00075969  0.00031569 -0.00020152  0.00111433  0.00015863
                   Z  0.00170975  0.00092443 -0.00046351  0.00167680  0.00019397
 19   H            X -0.00000474 -0.00076952  0.00036717 -0.00128440 -0.00146786
                   Y -0.00022074  0.00000599  0.00001095  0.00023531  0.00017870
                   Z  0.00006640  0.00034524 -0.00019075  0.00000066  0.00035002
 20   H            X  0.00061353 -0.00046133 -0.00002366 -0.00052661 -0.00106968
                   Y  0.00020041 -0.00027915 -0.00003897  0.00030816 -0.00022708
                   Z  0.00002791  0.00002806 -0.00014354 -0.00030412 -0.00006044

 TRANS. SAYVETZ    X  0.00000022  0.00000003  0.00000014  0.00000034  0.00000006
                   Y -0.00000025 -0.00000019  0.00000007 -0.00000009 -0.00000003
                   Z -0.00000057 -0.00000008 -0.00000042  0.00000003 -0.00000007
               TOTAL  0.00000066  0.00000021  0.00000045  0.00000035  0.00000010

   ROT. SAYVETZ    X -0.00029586 -0.00027613  0.00034245 -0.00069267 -0.00037337
                   Y -0.00009332 -0.00040200 -0.00043902 -0.00011460  0.00037096
                   Z -0.00003999 -0.00019119 -0.00007785  0.00057527  0.00012430
               TOTAL  0.00031280  0.00052384  0.00056220  0.00090767  0.00054080

                           56          57          58          59          60
       FREQUENCY:      3737.29     3739.22     3739.68     3747.28     3768.90  
        SYMMETRY:         A           A           A           A           A   
    REDUCED MASS:      1.09735     1.11156     1.10750     1.10959     1.11043
    IR INTENSITY:      0.46348     0.07393     0.03240     0.00308     0.00899

  1   C            X  0.00228443 -0.00383784 -0.00125195  0.00125748  0.00009737
                   Y -0.00335632 -0.00054637  0.00019503  0.00121534  0.00007572
                   Z  0.00624280  0.00882538  0.00163693 -0.00479604 -0.00012658
  2   C            X -0.01259171 -0.05165945 -0.01376047  0.02091909  0.00006436
                   Y -0.00112171 -0.00537476 -0.00145286  0.00214988  0.00003454
                   Z  0.01635101  0.06030261  0.01594347 -0.02621138 -0.00009017
  3   C            X  0.00423252  0.01165694  0.00154751  0.02969874  0.00096420
                   Y -0.00116682 -0.00588455 -0.00106678 -0.01146415 -0.00041390
                   Z -0.01113751 -0.03058626 -0.00364169 -0.07839360 -0.00208571
  4   C            X -0.06124064  0.01485603  0.01064034  0.00242050 -0.00097817
                   Y -0.05227466  0.01266723  0.00892578  0.00200692 -0.00049240
                   Z  0.01460262 -0.00353724 -0.00239960 -0.00050147  0.00015548
  5   C            X -0.00018652 -0.00001940  0.00075358 -0.00041530 -0.00013590
                   Y  0.00331282 -0.00081910 -0.00095273 -0.00016819  0.00053397
                   Z  0.00044722  0.00033870 -0.00060534  0.00011194  0.00030278
  6   C            X -0.00242897  0.00841608 -0.03064484 -0.00055541 -0.03863923
                   Y  0.00294018 -0.00494164  0.01959936  0.00261711 -0.08291424
                   Z -0.00854329  0.02162633 -0.07872179 -0.00343383 -0.00558474
  7   H            X  0.01453190  0.04106713  0.00945507 -0.01905885 -0.00034447
                   Y -0.01135246 -0.03142106 -0.00724926  0.01467858  0.00030396
                   Z -0.02263038 -0.06866562 -0.01585027  0.03151230  0.00077886
  8   H            X -0.00482085 -0.00049366  0.00047280  0.00105786 -0.00019722
                   Y  0.04663536  0.04229127  0.00619961 -0.02698854 -0.00045057
                   Z -0.04648733 -0.04134200 -0.00593961  0.02680626  0.00045144
  9   H            X  0.00470632  0.01741897  0.00453728 -0.00465081  0.00005084
                   Y -0.00336966 -0.01010368 -0.00247571  0.00166989 -0.00006274
                   Z -0.14514834 -0.53234643 -0.14097356  0.24409699  0.00123867
 10   H            X  0.14753483  0.58205016  0.15493742 -0.24109814 -0.00063244
                   Y  0.01795866  0.07149700  0.01897330 -0.02821212 -0.00004015
                   Z -0.04457956 -0.17647876 -0.04694151  0.07328724  0.00022869
 11   H            X -0.01026737 -0.03118557 -0.00353757 -0.07928358 -0.00196845
                   Y  0.05535522  0.16502931  0.02118279  0.40665900  0.01082770
                   Z  0.05095387  0.15012327  0.01908314  0.36939151  0.00980025
 12   H            X -0.03759141 -0.10030173 -0.01130880 -0.26616825 -0.00601778
                   Y -0.03667496 -0.09719858 -0.01024843 -0.27050585 -0.00622808
                   Z  0.07748842  0.20573072  0.02281474  0.55724206  0.01361977
 13   H            X  0.68690128 -0.16380599 -0.11709620 -0.02660702  0.00791825
                   Y  0.57204559 -0.13686364 -0.09757505 -0.02183890  0.00696915
                   Z -0.17369844  0.04129640  0.02993107  0.00581201 -0.00204593
 14   H            X  0.00208694 -0.00267129  0.00923900  0.00093928 -0.02178791
                   Y -0.04628880  0.09494169 -0.36041234 -0.03152583  0.69639249
                   Z  0.00816098 -0.01810860  0.07011947  0.00652269 -0.14483218
 15   H            X  0.03281061 -0.10639652  0.38418236  0.00648588  0.48075680
                   Y  0.01932557 -0.06202628  0.22474259  0.00444956  0.27662525
                   Z  0.01783412 -0.05844174  0.21128261  0.00385470  0.27125025
 16   H            X -0.00492407  0.01158899 -0.04178384 -0.00229710  0.00169789
                   Y -0.01014869  0.02511547 -0.09136904 -0.00402958  0.00557558
                   Z  0.07438912 -0.18130214  0.65905466  0.03082737 -0.06223658
 17   B            X  0.00010072 -0.00007896 -0.00010057 -0.00000198  0.00009608
                   Y  0.00086972 -0.00019150 -0.00001200  0.00012471 -0.00012443
                   Z -0.00033196  0.00007322  0.00019813 -0.00009601 -0.00004093
 18   H            X -0.00065860 -0.00159017  0.00118677 -0.00357956 -0.00046931
                   Y  0.00179813 -0.00067846 -0.00190178 -0.00162241  0.00139403
                   Z -0.00756562  0.00081419  0.00242922 -0.00050797  0.00091479
 19   H            X -0.00041015  0.00047298  0.00061104  0.00018682  0.00016205
                   Y  0.00042813 -0.00015788 -0.00013299 -0.00017964  0.00021751
                   Z  0.00018791 -0.00021664  0.00008391  0.00015167 -0.00017362
 20   H            X  0.00165560 -0.00015731 -0.00025497 -0.00083780 -0.00028837
                   Y -0.00002822  0.00000042 -0.00022371 -0.00053884  0.00020121
                   Z  0.00084129 -0.00018886 -0.00011809  0.00019523 -0.00009217

 TRANS. SAYVETZ    X  0.00000004 -0.00000007 -0.00000003  0.00000004 -0.00000001
                   Y  0.00000016 -0.00000005  0.00000004  0.00000001 -0.00000006
                   Z  0.00000039 -0.00000009 -0.00000018 -0.00000010  0.00000005
               TOTAL  0.00000042  0.00000012  0.00000018  0.00000011  0.00000008

   ROT. SAYVETZ    X -0.00464058  0.00135914  0.00050912  0.00032198 -0.00020010
                   Y  0.00828349 -0.00199389 -0.00151464 -0.00023040  0.00015579
                   Z  0.00310429 -0.00113495 -0.00030819 -0.00094899 -0.00003765
               TOTAL  0.00998938  0.00266664  0.00162736  0.00102827  0.00025638

 REFERENCE ON SAYVETZ CONDITIONS - A. SAYVETZ, J.CHEM.PHYS., 7, 383-389(1939).

 NOTE - THE MODES J,K ARE ORTHONORMALIZED ACCORDING TO
 SUM ON I   M(I) * (X(I,J)*X(I,K) + Y(I,J)*Y(I,K) + Z(I,J)*Z(I,K)) = DELTA(J,K)

  MODE FREQ(CM**-1)  SYMMETRY  RED. MASS  IR INTENS.
     1    1098.027    A        2.126497    3.684816
     2     539.066    A        1.223280    6.671460
     3       0.008    A        4.805535    0.000000
     4       0.003    A        4.805556    0.000000
     5       0.001    A        4.805530    0.000000
     6      40.371    A        2.961773    0.009611
     7      71.661    A        2.284806    0.000601
     8     116.908    A        2.226802    0.018450
     9     128.460    A        2.737656    0.051634
    10     241.053    A        1.210177    0.017008
    11     267.732    A        1.784188    0.016339
    12     328.208    A        2.623634    0.006311
    13     358.916    A        2.440820    0.075766
    14     428.533    A        3.106034    0.015240
    15     504.150    A        2.573690    0.263858
    16     677.791    A        2.611269    1.138990
    17     718.847    A        1.240534    0.004613
    18     750.336    A        1.812964    0.083883
    19     785.708    A        1.510514    0.373637
    20     902.757    A        1.290903    0.510597
    21     942.693    A        1.784995    0.037966
    22     987.531    A        2.064446    0.011985
    23    1038.734    A        1.397479    0.917376
    24    1049.535    A        1.391281    0.785688
    25    1092.641    A        2.087077    0.068118
    26    1126.493    A        1.793371    0.268704
    27    1186.654    A        1.395018    0.846268
    28    1218.545    A        1.300696    1.719412
    29    1251.628    A        1.469850    2.365010
    30    1266.295    A        1.244815    2.323084
    31    1301.588    A        1.136381    0.590294
    32    1308.724    A        1.427467    1.454846
    33    1322.595    A        1.221070    1.478761
    34    1360.248    A        1.341011    0.131374
    35    1404.754    A        1.496745    0.164350
    36    1475.301    A        1.237406    0.001368
    37    1488.396    A        1.250792    0.020519
    38    1509.361    A        1.557002    0.090318
    39    1603.398    A        1.998035    0.027750
    40    1616.418    A        1.825585    0.300368
    41    1633.988    A        1.600630    0.038239
    42    1710.867    A        1.307922    0.106297
    43    1755.156    A        3.174082    0.405815
    44    1806.614    A        1.102783    0.005208
    45    1808.948    A        1.048941    0.046337
    46    1812.117    A        1.088214    0.021415
    47    1822.094    A        1.101196    0.012230
    48    1838.657    A        1.119390    0.005260
    49    3183.083    A        1.036933    0.037856
    50    3404.480    A        1.151591    0.173385
    51    3565.889    A        1.039367    0.010088
    52    3608.680    A        1.066187    0.064645
    53    3619.945    A        1.067013    0.060545
    54    3629.322    A        1.069020    0.018076
    55    3720.158    A        1.111001    0.006998
    56    3737.287    A        1.097348    0.463479
    57    3739.222    A        1.111565    0.073935
    58    3739.680    A        1.107500    0.032396
    59    3747.280    A        1.109591    0.003084
    60    3768.899    A        1.110430    0.008994

     -------------------------------
     THERMOCHEMISTRY AT T=  298.15 K
     -------------------------------

 USING IDEAL GAS, RIGID ROTOR, HARMONIC NORMAL MODE APPROXIMATIONS.
 P=  1.01325E+05 PASCAL.
 ALL FREQUENCIES ARE SCALED BY   1.00000
 THE MOMENTS OF INERTIA ARE (IN AMU*BOHR**2)
            525.36498           768.36809           955.22071
 THE ROTATIONAL SYMMETRY NUMBER IS  1.0
 THE ROTATIONAL CONSTANTS ARE (IN GHZ)
      3.43207     2.34665     1.88761
   2 IMAGINARY FREQUENCY VIBRATION(S) IS(ARE) EXCLUDED
     FROM THE FOLLOWING THERMOCHEMICAL ANALYSIS.
      9 -     60 VIBRATIONAL MODES ARE USED IN THERMOCHEMISTRY.
 THE HARMONIC ZERO POINT ENERGY IS (SCALED BY   1.000)
        0.203432 HARTREE/MOLECULE    44648.194730 CM**-1/MOLECULE 
      127.655723 KCAL/MOL              534.111544 KJ/MOL

               Q               LN Q
 ELEC.     1.00000E+00       0.000000
 TRANS.    3.70351E+07      17.427377
 ROT.      2.22284E+05      12.311712
 VIB.      1.01519E+01       2.317665
 TOT.      8.35740E+13      32.056754

              E         H         G         CV        CP        S
           KJ/MOL    KJ/MOL    KJ/MOL   J/MOL-K   J/MOL-K   J/MOL-K
 ELEC.      0.000     0.000     0.000     0.000     0.000     0.000
 TRANS.     3.718     6.197   -43.201    12.472    20.786   165.684
 ROT.       3.718     3.718   -30.520    12.472    12.472   114.836
 VIB.     543.769   543.769   528.366    78.819    78.819    51.662
 TOTAL    551.206   553.685   454.645   103.762   112.077   332.183
 VIB. THERMAL CORRECTION E(T)-E(0) = H(T)-H(0) =      9657.675 J/MOL

              E         H         G         CV        CP        S
         KCAL/MOL  KCAL/MOL  KCAL/MOL CAL/MOL-K CAL/MOL-K CAL/MOL-K
 ELEC.      0.000     0.000     0.000     0.000     0.000     0.000
 TRANS.     0.889     1.481   -10.325     2.981     4.968    39.600
 ROT.       0.889     0.889    -7.294     2.981     2.981    27.447
 VIB.     129.964   129.964   126.283    18.838    18.838    12.348
 TOTAL    131.741   132.334   108.663    24.800    26.787    79.394
 VIB. THERMAL CORRECTION E(T)-E(0) = H(T)-H(0) =      2308.240 CAL/MOL

     *******************************************************
     * THIS IS NOT A STATIONARY POINT ON THE MOLECULAR PES *
     *     THE VIBRATIONAL ANALYSIS IS NOT VALID !!!       *
     *******************************************************
 ......END OF NORMAL COORDINATE ANALYSIS......
 STEP CPU TIME =     0.01 TOTAL CPU TIME =        154.0 (      2.6 MIN)
 TOTAL WALL CLOCK TIME=        155.8 SECONDS, CPU UTILIZATION IS    98.87%
               580000  WORDS OF DYNAMIC MEMORY USED
 EXECUTION OF GAMESS TERMINATED NORMALLY Sat Nov 13 21:49:05 2021
 DDI: 263640 bytes (0.3 MB / 0 MWords) used by master data server.

 ----------------------------------------
 CPU timing information for all processes
 ========================================
 0: 151.378 + 2.637 = 154.16
 ----------------------------------------
 ddikick.x: exited gracefully.
----- accounting info -----
Files used on the master node chemcompute-node-0.novalocal were:
-rw-r--r--. 1 chemcomp chemcomp     1370 Nov 13 21:46 /scratch/306199/342101.F05
-rw-rw-r--. 1 chemcomp chemcomp  7920704 Nov 13 21:48 /scratch/306199/342101.F08
-rw-rw-r--. 1 chemcomp chemcomp 85196800 Nov 13 21:49 /scratch/306199/342101.F10
-rw-rw-r--. 1 chemcomp chemcomp   564960 Nov 13 21:49 /scratch/306199/342101.F18
Sat Nov 13 21:49:08 UTC 2021
0.134u 0.095s 2:39.34 0.1%	0+0k 8+224io 0pf+0w
Finishing Up...
Looking for IR data...
Looking for Raman data...
vibramans not found
Looking for thermodynamics data...
Looking for UV-Vis data...
306199
