----- GAMESS execution script 'rungms' -----
This job is running on host chemcompute-node-0.novalocal
under operating system Linux at Sat Nov 13 22:23:21 UTC 2021
SLURM has assigned the following compute nodes to this run:
chemcompute-node-0
Available scratch disk space (Kbyte units) at beginning of the job is
Filesystem     1K-blocks     Used Available Use% Mounted on
/dev/sda1       62903276 17001652  45901624  28% /
GAMESS temporary binary files will be written to /scratch/306221
GAMESS supplementary output files will be written to /data/slurm/342123
Copying input file 342123.inp to your run's scratch directory...
The generated host list is
chemcompute-node-0.novalocal

 Distributed Data Interface kickoff program.
 Initiating 1 compute processes on 1 nodes to run the following command:
 /data/gamess-2019R1-ddi/gamess.00.x 342123 

          ******************************************************
          *         GAMESS VERSION = 30 JUN 2019 (R1)          *
          *             FROM IOWA STATE UNIVERSITY             *
          * M.W.SCHMIDT, K.K.BALDRIDGE, J.A.BOATZ, S.T.ELBERT, *
          *   M.S.GORDON, J.H.JENSEN, S.KOSEKI, N.MATSUNAGA,   *
          *          K.A.NGUYEN, S.J.SU, T.L.WINDUS,           *
          *       TOGETHER WITH M.DUPUIS, J.A.MONTGOMERY       *
          *         J.COMPUT.CHEM.  14, 1347-1363(1993)        *
          **************** 64 BIT LINUX VERSION ****************

  SINCE 1993, STUDENTS AND POSTDOCS WORKING AT IOWA STATE UNIVERSITY
  AND ALSO IN THEIR VARIOUS JOBS AFTER LEAVING ISU HAVE MADE IMPORTANT
  CONTRIBUTIONS TO THE CODE:
     IVANA ADAMOVIC, CHRISTINE AIKENS, YURI ALEXEEV, POOJA ARORA,
     ANDREY ASADCHEV, ROB BELL, PRADIPTA BANDYOPADHYAY, JONATHAN BENTZ,
     COLLEEN BERTONI, BRETT BODE, KURT BRORSEN, CALEB CARLIN, GALINA CHABAN,
     WEI CHEN, CHEOL HO CHOI, PAUL DAY, ALBERT DEFUSCO, NUWAN DESILVA,
     TIM DUDLEY, DMITRI FEDOROV, ALEX FINDLATER, GRAHAM FLETCHER, 
     MARK FREITAG, KURT GLAESEMANN, ANASTASIA GUNINA,
     DAN KEMP, GRANT MERRILL, NORIYUKI MINEZAWA, JONATHAN MULLIN,
     TAKESHI NAGATA, SEAN NEDD, HEATHER NETZLOFF, BOSILJKA NJEGIC, RYAN OLSON,
     MIKE PAK, BUU PHAM,
     SPENCER PRUITT, LUKE ROSKOP, JIM SHOEMAKER, LYUDMILA SLIPCHENKO,
     TONY SMITH, SAROM SOK LEANG, JIE SONG, TETSUYA TAKETSUGU, SIMON WEBB,
     PENG XU, SOOHAENG YOO, FEDERICO ZAHARIEV

  ADDITIONAL CODE HAS BEEN PROVIDED BY COLLABORATORS IN OTHER GROUPS:
     IOWA STATE UNIVERSITY:
          JOE IVANIC, AARON WEST, LAIMUTIS BYTAUTAS, KLAUS RUEDENBERG
     UNIVERSITY OF TOKYO: KIMIHIKO HIRAO, TAKAHITO NAKAJIMA,
          TAKAO TSUNEDA, MUNEAKI KAMIYA, SUSUMU YANAGISAWA,
          KIYOSHI YAGI, MAHITO CHIBA, SEIKEN TOKURA, NAOAKI KAWAKAMI
     UNIVERSITY OF AARHUS: FRANK JENSEN
     UNIVERSITY OF IOWA: VISVALDAS KAIRYS, HUI LI
     NATIONAL INST. OF STANDARDS AND TECHNOLOGY: WALT STEVENS, DAVID GARMER
     UNIVERSITY OF PISA: BENEDETTA MENNUCCI, JACOPO TOMASI
     UNIVERSITY OF MEMPHIS: HENRY KURTZ, PRAKASHAN KORAMBATH
     UNIVERSITY OF ALBERTA: TOBY ZENG, MARIUSZ KLOBUKOWSKI
     UNIVERSITY OF NEW ENGLAND: MARK SPACKMAN
     MIE UNIVERSITY: HIROAKI UMEDA
     NAT. INST. OF ADVANCED INDUSTRIAL SCIENCE AND TECHNOLOGY: KAZUO KITAURA
     MICHIGAN STATE UNIVERSITY:
          KAROL KOWALSKI, MARTA WLOCH, JEFFREY GOUR, JESSE LUTZ,
          WEI LI, JUN SHEN, J. EMILIANO DEUSTUA, PIOTR PIECUCH
     UNIVERSITY OF MINNESOTA:
          YINAN SHU
     UNIVERSITY OF SILESIA: MONIKA MUSIAL, STANISLAW KUCHARSKI
     FACULTES UNIVERSITAIRES NOTRE-DAME DE LA PAIX:
          OLIVIER QUINET, BENOIT CHAMPAGNE
     UNIVERSITY OF CALIFORNIA - SANTA BARBARA: BERNARD KIRTMAN
     INSTITUTE FOR MOLECULAR SCIENCE:
          KAZUYA ISHIMURA, MICHIO KATOUDA, AND SHIGERU NAGASE
     UNIVERSITY OF NOTRE DAME: ANNA POMOGAEVA, DAN CHIPMAN
     KYUSHU UNIVERSITY:
          HARUYUKI NAKANO,
          FENG LONG GU, JACEK KORCHOWIEC, MARCIN MAKOWSKI, AND YURIKO AOKI,
          HIROTOSHI MORI AND EISAKU MIYOSHI
     PENNSYLVANIA STATE UNIVERSITY:
          TZVETELIN IORDANOV, CHET SWALINA, JONATHAN SKONE,
          SHARON HAMMES-SCHIFFER
     WASEDA UNIVERSITY:
          MASATO KOBAYASHI, TOMOKO AKAMA, TSUGUKI TOUMA,
          TAKESHI YOSHIKAWA, YASUHIRO IKABATA, JUNJI SEINO,
          YUYA NAKAJIMA, HIROMI NAKAI
     NANJING UNIVERSITY: SHUHUA LI
     UNIVERSITY OF NEBRASKA:
          PEIFENG SU, DEJUN SI, NANDUN THELLAMUREGE, YALI WANG, HUI LI
     UNIVERSITY OF ZURICH: ROBERTO PEVERATI, KIM BALDRIDGE
     N. COPERNICUS UNIVERSITY AND JACKSON STATE UNIVERSITY:
          MARIA BARYSZ
     UNIVERSITY OF COPENHAGEN: Jimmy Kromann, CASPER STEINMANN
     TOKYO INSTITUTE OF TECHNOLOGY: HIROYA NAKATA
     NAGOYA UNIVERSITY: YOSHIO NISHIMOTO, STEPHAN IRLE
     MOSCOW STATE UNIVERSITY: VLADIMIR MIRONOV
     A.N.NESMEYANOV INSTITUTE OF ORGANOELEMENT COMPOUNDS OF RUSSIAN ACADEMY OF SCIENCES:
          IGOR S. GERASIMOV

 EXECUTION OF GAMESS BEGUN Sat Nov 13 22:23:22 2021

            ECHO OF THE FIRST FEW INPUT CARDS -
 INPUT CARD>!File created by the GAMESS Input Deck Generator Plugin for Avogadro            
 INPUT CARD> $BASIS GBASIS=STO NGAUSS=3 $END                                                
 INPUT CARD> $CONTRL SCFTYP=RHF RUNTYP=SADPOINT NZVAR=1 mult=1  ICHARG=0 $END               
 INPUT CARD> $STATPT hssend=.t. OPTTOL=0.0005 NSTEP=50 $END                                 
 INPUT CARD> $STATPT HESS=calc ihrep=5 $END                                                 
 INPUT CARD> $FORCE nvib=2 $END                                                             
 INPUT CARD> $ZMAT DLC=.t. auto=.t. nonvdw(1)=4,17,17,18,5,18,4,5 $END                      
 INPUT CARD>!$ZMAT IFZMAT(1)=1,4,17,1,17,18,1,5,18 fvalue(1)=2.08,1.98,2.01 $END}           
 INPUT CARD>                                                                                
 INPUT CARD> $DATA                                                                          
 INPUT CARD>Title                                                                           
 INPUT CARD>C1                                                                              
 INPUT CARD>C     6.0    -0.76250023     1.16050100    -0.07108475                          
 INPUT CARD>C     6.0    -1.37238848    -0.17241277    -0.58331919                          
 INPUT CARD>C     6.0    -0.46503943    -1.29773915    -0.01880602                          
 INPUT CARD>C     6.0     0.68755406     0.79927915     0.25329399                          
 INPUT CARD>C     6.0     0.88744372    -0.59890342     0.29892114                          
 INPUT CARD>C     6.0     2.20630550    -1.21960402    -0.19002113                          
 INPUT CARD>H     1.0    -1.30498445     1.53364253     0.79593503                          
 INPUT CARD>H     1.0    -0.80205113     1.93442082    -0.83518660                          
 INPUT CARD>H     1.0    -1.34364808    -0.19148450    -1.67018569                          
 INPUT CARD>H     1.0    -2.40727830    -0.29878920    -0.27687001                          
 INPUT CARD>H     1.0    -0.31096983    -2.09797144    -0.73918897                          
 INPUT CARD>H     1.0    -0.90028012    -1.73568869     0.87438244                          
 INPUT CARD>H     1.0     1.50171936     1.47773588     0.04456785                          
 INPUT CARD>H     1.0     2.24719644    -2.28255248     0.02356290                          
 INPUT CARD>H     1.0     3.05620146    -0.73293424     0.27867499                          
 INPUT CARD>H     1.0     2.27832055    -1.07493472    -1.26704061                          
 INPUT CARD>B     5.0     0.94615459     0.23016623     2.23713779                          
 INPUT CARD>H     1.0     1.13969994    -1.71911860     1.94864380                          
 INPUT CARD>H     1.0    -0.08470766     0.35303241     2.73799109                          
 INPUT CARD>H     1.0     1.98945522     0.61076111     2.54651904                          
 INPUT CARD> $END                                                                           
    1000000 WORDS OF MEMORY AVAILABLE

     BASIS OPTIONS
     -------------
     GBASIS=STO          IGAUSS=       3      POLAR=NONE    
     NDFUNC=       0     NFFUNC=       0     DIFFSP=       F
     NPFUNC=       0      DIFFS=       F     BASNAM=        


     RUN TITLE
     ---------
 Title                                                                           

 THE POINT GROUP OF THE MOLECULE IS C1      
 THE ORDER OF THE PRINCIPAL AXIS IS     0

 ATOM      ATOMIC                      COORDINATES (BOHR)
           CHARGE         X                   Y                   Z
 C           6.0    -1.4409165003        2.1930288985       -0.1343306994
 C           6.0    -2.5934381759       -0.3258128921       -1.1023134325
 C           6.0    -0.8787970962       -2.4523713970       -0.0355382247
 C           6.0     1.2992887751        1.5104185812        0.4786562354
 C           6.0     1.6770254603       -1.1317633569        0.5648790465
 C           6.0     4.1693128402       -2.3047174113       -0.3590878676
 H           1.0    -2.4660630287        2.8981641448        1.5040991107
 H           1.0    -1.5156568638        3.6555252947       -1.5782738226
 H           1.0    -2.5391266951       -0.3618532359       -3.1561933027
 H           1.0    -4.5490963632       -0.5646297161       -0.5232084531
 H           1.0    -0.5876477691       -3.9645911517       -1.3968646064
 H           1.0    -1.7012827390       -3.2799760241        1.6523432201
 H           1.0     2.8378381009        2.7925158954        0.0842210244
 H           1.0     4.2465855122       -4.3133987398        0.0445274245
 H           1.0     5.7753833227       -1.3850448806        0.5266193707
 H           1.0     4.3054015517       -2.0313320755       -2.3943595682
 B           5.0     1.7879729171        0.4349511063        4.2275774199
 H           1.0     2.1537205948       -3.2486630944        3.6824028297
 H           1.0    -0.1600742665        0.6671345197        5.1740529169
 H           1.0     3.7595252306        1.1541711419        4.8122232081

          INTERNUCLEAR DISTANCES (ANGS.)
          ------------------------------

                1 C          2 C          3 C          4 C          5 C     

   1 C       0.0000000    1.5527417 *  2.4767238 *  1.5291698 *  2.4402302 *
   2 C       1.5527417 *  0.0000000    1.5518753 *  2.4264109 *  2.4631451 *
   3 C       2.4767238 *  1.5518753 *  0.0000000    2.4083181 *  1.5551632 *
   4 C       1.5291698 *  2.4264109 *  2.4083181 *  0.0000000    1.4131356 *
   5 C       2.4402302 *  2.4631451 *  1.5551632 *  1.4131356 *  0.0000000  
   6 C       3.8069480    3.7494458    2.6779663 *  2.5649607 *  1.5374427 *
   7 H       1.0886905 *  2.1948827 *  3.0636633    2.1917935 *  3.0986314  
   8 H       1.0882866 *  2.1971504 *  3.3506585    2.1661626 *  3.2493576  
   9 H       2.1731823 *  1.0874137 *  2.1732021 *  2.9676875 *  3.0035217  
  10 H       2.2084317 *  1.0866826 *  2.1992703 *  3.3263817    3.3580943  
  11 H       3.3567671    2.2042416 *  1.0876860 *  3.2212006    2.1819882 *
  12 H       3.0497223    2.1889751 *  1.0858268 *  3.0550009    2.1953116 *
  13 H       2.2892584 *  3.3730889    3.4022666    1.0801552 *  2.1804726 *
  14 H       4.5740408    4.2334844    2.8858059 *  3.4616393    2.1816104 *
  15 H       4.2766706    4.5463862    3.5786362    2.8211368 *  2.1729897 *
  16 H       3.9590497    3.8222634    3.0222103    2.8904382 *  2.1478781 *
  17 B       3.0187606    3.6732396    3.0684273    2.0800000 *  2.1089066 *
  18 H       3.9987345    3.8876373    2.5736371 *  3.0693605    2.0100000 *
  19 H       3.0003859    3.6007383    3.2356807    2.6399326 *  2.7929057 *
  20 H       3.8376194    4.6595324    4.0308572    2.6437411 *  2.7801824 *

                6 C          7 H          8 H          9 H         10 H     

   1 C       3.8069480    1.0886905 *  1.0882866 *  2.1731823 *  2.2084317 *
   2 C       3.7494458    2.1948827 *  2.1971504 *  1.0874137 *  1.0866826 *
   3 C       2.6779663 *  3.0636633    3.3506585    2.1732021 *  2.1992703 *
   4 C       2.5649607 *  2.1917935 *  2.1661626 *  2.9676875 *  3.3263817  
   5 C       1.5374427 *  3.0986314    3.2493576    3.0035217    3.3580943  
   6 C       0.0000000    4.5696426    4.4061685    3.9812168    4.7053797  
   7 H       4.5696426    0.0000000    1.7533177 *  3.0098687    2.3924398 *
   8 H       4.4061685    1.7533177 *  0.0000000    2.3473441 *  2.8063675 *
   9 H       3.9812168    3.0098687    2.3473441 *  0.0000000    1.7561754 *
  10 H       4.7053797    2.3924398 *  2.8063675 *  1.7561754 *  0.0000000  
  11 H       2.7220929 *  4.0661150    4.0633193    2.3596338 *  2.8009471 *
  12 H       3.3241800    3.2952187    4.0499357    3.0093137    2.3793079 *
  13 H       2.7976984 *  2.9060737 *  2.5079648 *  3.7179016    4.3057666  
  14 H       1.0849653 *  5.2704736    5.2742986    4.4872613    5.0685019  
  15 H       1.0857471 *  4.9421524    4.8209526    4.8425099    5.5087860  
  16 H       1.0890759 *  4.8888259    4.3279797    3.7498889    4.8515643  
  17 B       3.0953052    2.9738431 *  3.9242686    4.5484242    4.2243983  
  18 H       2.4415261 *  4.2291458    4.9868286    4.6472153    4.4216854  
  19 H       4.0367291    2.5796313 *  3.9727786    4.6166495    3.8611648  
  20 H       3.2993806    3.8431221    4.5804493    5.4344985    5.3037791  

               11 H         12 H         13 H         14 H         15 H     

   1 C       3.3567671    3.0497223    2.2892584 *  4.5740408    4.2766706  
   2 C       2.2042416 *  2.1889751 *  3.3730889    4.2334844    4.5463862  
   3 C       1.0876860 *  1.0858268 *  3.4022666    2.8858059 *  3.5786362  
   4 C       3.2212006    3.0550009    1.0801552 *  3.4616393    2.8211368 *
   5 C       2.1819882 *  2.1953116 *  2.1804726 *  2.1816104 *  2.1729897 *
   6 C       2.7220929 *  3.3241800    2.7976984 *  1.0849653 *  1.0857471 *
   7 H       4.0661150    3.2952187    2.9060737 *  5.2704736    4.9421524  
   8 H       4.0633193    4.0499357    2.5079648 *  5.2742986    4.8209526  
   9 H       2.3596338 *  3.0093137    3.7179016    4.4872613    4.8425099  
  10 H       2.8009471 *  2.3793079 *  4.3057666    5.0685019    5.5087860  
  11 H       0.0000000    1.7556048 *  4.0848255    2.6758317 *  3.7732236  
  12 H       1.7556048 *  0.0000000    4.0968636    3.3059889    4.1248188  
  13 H       4.0848255    4.0968636    0.0000000    3.8335292    2.7126156 *
  14 H       2.6758317 *  3.3059889    3.8335292    0.0000000    1.7666035 *
  15 H       3.7732236    4.1248188    2.7126156 *  1.7666035 *  0.0000000  
  16 H       2.8336648 *  3.8891890    2.9731386 *  1.7677576 *  1.7638877 *
  17 B       3.9823495    3.0217559    2.5831077 *  3.5925449    3.0356938  
  18 H       3.0777292    2.3056085 *  3.7385080    2.2912753 *  2.7265974 *
  19 H       4.2602107    2.9156391 *  3.3220833    4.4443453    4.1343523  
  20 H       4.8399447    4.0807399    2.6924508 *  3.8474669    2.8436915 *

               16 H         17 B         18 H         19 H         20 H     

   1 C       3.9590497    3.0187606    3.9987345    3.0003859    3.8376194  
   2 C       3.8222634    3.6732396    3.8876373    3.6007383    4.6595324  
   3 C       3.0222103    3.0684273    2.5736371 *  3.2356807    4.0308572  
   4 C       2.8904382 *  2.0800000 *  3.0693605    2.6399326 *  2.6437411 *
   5 C       2.1478781 *  2.1089066 *  2.0100000 *  2.7929057 *  2.7801824 *
   6 C       1.0890759 *  3.0953052    2.4415261 *  4.0367291    3.2993806  
   7 H       4.8888259    2.9738431 *  4.2291458    2.5796313 *  3.8431221  
   8 H       4.3279797    3.9242686    4.9868286    3.9727786    4.5804493  
   9 H       3.7498889    4.5484242    4.6472153    4.6166495    5.4344985  
  10 H       4.8515643    4.2243983    4.4216854    3.8611648    5.3037791  
  11 H       2.8336648 *  3.9823495    3.0777292    4.2602107    4.8399447  
  12 H       3.8891890    3.0217559    2.3056085 *  2.9156391 *  4.0807399  
  13 H       2.9731386 *  2.5831077 *  3.7385080    3.3220833    2.6924508 *
  14 H       1.7677576 *  3.5925449    2.2912753 *  4.4443453    3.8474669  
  15 H       1.7638877 *  3.0356938    2.7265974 *  4.1343523    2.8436915 *
  16 H       0.0000000    3.9695366    3.4716071    4.8644909    4.1795037  
  17 B       3.9695366    0.0000000    1.9800000 *  1.1526609 *  1.1528423 *
  18 H       3.4716071    1.9800000 *  0.0000000    2.5329929 *  2.5510544 *
  19 H       4.8644909    1.1526609 *  2.5329929 *  0.0000000    2.0988657 *
  20 H       4.1795037    1.1528423 *  2.5510544 *  2.0988657 *  0.0000000  

  * ... LESS THAN  3.000


     ATOMIC BASIS SET
     ----------------
 THE CONTRACTED PRIMITIVE FUNCTIONS HAVE BEEN UNNORMALIZED
 THE CONTRACTED BASIS FUNCTIONS ARE NOW NORMALIZED TO UNITY

  SHELL TYPE  PRIMITIVE        EXPONENT          CONTRACTION COEFFICIENT(S)

 C         

      1   S       1            71.6168373    0.154328967295
      1   S       2            13.0450963    0.535328142282
      1   S       3             3.5305122    0.444634542185

      2   L       4             2.9412494   -0.099967229187    0.155916274999
      2   L       5             0.6834831    0.399512826089    0.607683718598
      2   L       6             0.2222899    0.700115468880    0.391957393099

 C         

      3   S       7            71.6168373    0.154328967295
      3   S       8            13.0450963    0.535328142282
      3   S       9             3.5305122    0.444634542185

      4   L      10             2.9412494   -0.099967229187    0.155916274999
      4   L      11             0.6834831    0.399512826089    0.607683718598
      4   L      12             0.2222899    0.700115468880    0.391957393099

 C         

      5   S      13            71.6168373    0.154328967295
      5   S      14            13.0450963    0.535328142282
      5   S      15             3.5305122    0.444634542185

      6   L      16             2.9412494   -0.099967229187    0.155916274999
      6   L      17             0.6834831    0.399512826089    0.607683718598
      6   L      18             0.2222899    0.700115468880    0.391957393099

 C         

      7   S      19            71.6168373    0.154328967295
      7   S      20            13.0450963    0.535328142282
      7   S      21             3.5305122    0.444634542185

      8   L      22             2.9412494   -0.099967229187    0.155916274999
      8   L      23             0.6834831    0.399512826089    0.607683718598
      8   L      24             0.2222899    0.700115468880    0.391957393099

 C         

      9   S      25            71.6168373    0.154328967295
      9   S      26            13.0450963    0.535328142282
      9   S      27             3.5305122    0.444634542185

     10   L      28             2.9412494   -0.099967229187    0.155916274999
     10   L      29             0.6834831    0.399512826089    0.607683718598
     10   L      30             0.2222899    0.700115468880    0.391957393099

 C         

     11   S      31            71.6168373    0.154328967295
     11   S      32            13.0450963    0.535328142282
     11   S      33             3.5305122    0.444634542185

     12   L      34             2.9412494   -0.099967229187    0.155916274999
     12   L      35             0.6834831    0.399512826089    0.607683718598
     12   L      36             0.2222899    0.700115468880    0.391957393099

 H         

     13   S      37             3.4252509    0.154328967295
     13   S      38             0.6239137    0.535328142282
     13   S      39             0.1688554    0.444634542185

 H         

     14   S      40             3.4252509    0.154328967295
     14   S      41             0.6239137    0.535328142282
     14   S      42             0.1688554    0.444634542185

 H         

     15   S      43             3.4252509    0.154328967295
     15   S      44             0.6239137    0.535328142282
     15   S      45             0.1688554    0.444634542185

 H         

     16   S      46             3.4252509    0.154328967295
     16   S      47             0.6239137    0.535328142282
     16   S      48             0.1688554    0.444634542185

 H         

     17   S      49             3.4252509    0.154328967295
     17   S      50             0.6239137    0.535328142282
     17   S      51             0.1688554    0.444634542185

 H         

     18   S      52             3.4252509    0.154328967295
     18   S      53             0.6239137    0.535328142282
     18   S      54             0.1688554    0.444634542185

 H         

     19   S      55             3.4252509    0.154328967295
     19   S      56             0.6239137    0.535328142282
     19   S      57             0.1688554    0.444634542185

 H         

     20   S      58             3.4252509    0.154328967295
     20   S      59             0.6239137    0.535328142282
     20   S      60             0.1688554    0.444634542185

 H         

     21   S      61             3.4252509    0.154328967295
     21   S      62             0.6239137    0.535328142282
     21   S      63             0.1688554    0.444634542185

 H         

     22   S      64             3.4252509    0.154328967295
     22   S      65             0.6239137    0.535328142282
     22   S      66             0.1688554    0.444634542185

 B         

     23   S      67            48.7911132    0.154328967295
     23   S      68             8.8873622    0.535328142282
     23   S      69             2.4052670    0.444634542185

     24   L      70             2.2369561   -0.099967229187    0.155916274999
     24   L      71             0.5198205    0.399512826089    0.607683718598
     24   L      72             0.1690618    0.700115468880    0.391957393099

 H         

     25   S      73             3.4252509    0.154328967295
     25   S      74             0.6239137    0.535328142282
     25   S      75             0.1688554    0.444634542185

 H         

     26   S      76             3.4252509    0.154328967295
     26   S      77             0.6239137    0.535328142282
     26   S      78             0.1688554    0.444634542185

 H         

     27   S      79             3.4252509    0.154328967295
     27   S      80             0.6239137    0.535328142282
     27   S      81             0.1688554    0.444634542185

 TOTAL NUMBER OF BASIS SET SHELLS             =   27
 NUMBER OF CARTESIAN GAUSSIAN BASIS FUNCTIONS =   48
 NUMBER OF ELECTRONS                          =   54
 CHARGE OF MOLECULE                           =    0
 SPIN MULTIPLICITY                            =    1
 NUMBER OF OCCUPIED ORBITALS (ALPHA)          =   27
 NUMBER OF OCCUPIED ORBITALS (BETA )          =   27
 TOTAL NUMBER OF ATOMS                        =   20
 THE NUCLEAR REPULSION ENERGY IS      303.0192185987

     $CONTRL OPTIONS
     ---------------
 SCFTYP=RHF          RUNTYP=SADPOINT     EXETYP=RUN     
 MPLEVL=       0     CITYP =NONE         CCTYP =NONE         VBTYP =NONE    
 DFTTYP=NONE         TDDFT =NONE    
 MULT  =       1     ICHARG=       0     NZVAR =       1     COORD =UNIQUE  
 PP    =NONE         RELWFN=NONE         LOCAL =NONE         NUMGRD=       F
 ISPHER=      -1     NOSYM =       0     MAXIT =      30     UNITS =ANGS    
 PLTORB=       F     MOLPLT=       F     AIMPAC=       F     FRIEND=        
 NPRINT=       7     IREST =       0     GEOM  =INPUT   
 NORMF =       0     NORMP =       0     ITOL  =      20     ICUT  =       9
 INTTYP=BEST         GRDTYP=BEST         QMTTOL= 1.0E-06

     $SYSTEM OPTIONS
     ---------------
  REPLICATED MEMORY=     1000000 WORDS (ON EVERY NODE).
 DISTRIBUTED MEMDDI=           0 MILLION WORDS IN AGGREGATE,
 MEMDDI DISTRIBUTED OVER   1 PROCESSORS IS           0 WORDS/PROCESSOR.
 TOTAL MEMORY REQUESTED ON EACH PROCESSOR=     1000000 WORDS.
 TIMLIM=      525600.00 MINUTES, OR     365.0 DAYS.
 PARALL= F  BALTYP=  DLB     KDIAG=    0  COREFL= F
 MXSEQ2=     300 MXSEQ3=     150  mem10=         0

          ----------------
          PROPERTIES INPUT
          ----------------

     MOMENTS            FIELD           POTENTIAL          DENSITY
 IEMOM =       1   IEFLD =       0   IEPOT =       0   IEDEN =       0
 WHERE =COMASS     WHERE =NUCLEI     WHERE =NUCLEI     WHERE =NUCLEI  
 OUTPUT=BOTH       OUTPUT=BOTH       OUTPUT=BOTH       OUTPUT=BOTH    
 IEMINT=       0   IEFINT=       0                     IEDINT=       0
                                                       MORB  =       0
          EXTRAPOLATION IN EFFECT
          SOSCF IN EFFECT
 ORBITAL PRINTING OPTION: NPREO=     1    48     2     1

     -------------------------------
     INTEGRAL TRANSFORMATION OPTIONS
     -------------------------------
     NWORD  =            0
     CUTOFF = 1.0E-09     MPTRAN =       0
     DIRTRF =       F     AOINTS =DUP     

          ----------------------
          INTEGRAL INPUT OPTIONS
          ----------------------
 NOPK  =       1 NORDER=       0 SCHWRZ=       T


 -----------------------------------------------
  STATISTICS ON AUTOMATIC COORDINATE GENERATION 
 -----------------------------------------------
  NUMBER OF USER SPECIFIED BONDS                             4
  NUMBER OF BONDS                                           22
  NUMBER OF ANGLES                                          49
  NUMBER OF TORSIONS                                        69
  NUMBER OF EXTRA COORD.                                     0
  NUMBER OF EXTRA COORD. FOR CONSTRAINTS                     0
  NUMBER OF CONSTRAINED COORD.                               0

  TOTAL NUMBER OF PRIMITIVES                               140
 -----------------------------------------------

   --- ENCODED Z MATRIX ---
 COORD  TYPE   I   J   K   L   M   N
    1      1    1   4
    2      1    1   2
    3      1    1   7
    4      1    1   8
    5      1    2   3
    6      1    2  10
    7      1    2   9
    8      1    3  12
    9      1    3  11
   10      1    3   5
   11      1    4  13
   12      1    4   5
   13      1    4   5
   14      1    4  17
   15      1    5   6
   16      1    5  18
   17      1    6  15
   18      1    6  14
   19      1    6  16
   20      1   17  18
   21      1   17  20
   22      1   17  19
   23      2    1   4  13
   24      2    1   2   3
   25      2    1   4   5
   26      2    1   2  10
   27      2    1   4  17
   28      2    1   2   9
   29      2    1   4   5
   30      2    2   1   8
   31      2    2   3   5
   32      2    2   3  11
   33      2    2   1   4
   34      2    2   3  12
   35      2    2   1   7
   36      2    3   2   9
   37      2    3   2  10
   38      2    3   5  18
   39      2    3   5   6
   40      2    3   5   4
   41      2    3   5   4
   42      2    4   5   6
   43      2    4   1   8
   44      2    4   1   7
   45      2    4  17  19
   46      2    4  17  20
   47      2    4  17  18
   48      2    4   5  18
   49      2    4   5   6
   50      2    4   5  18
   51      2    5   4  17
   52      2    5   4  13
   53      2    5   4  13
   54      2    5   3  11
   55      2    5   3  12
   56      2    5   6  14
   57      2    5   6  15
   58      2    5  18  17
   59      2    5   4  17
   60      2    5   6  16
   61      2    6   5  18
   62      2    7   1   8
   63      2    9   2  10
   64      2   11   3  12
   65      2   13   4  17
   66      2   14   6  16
   67      2   14   6  15
   68      2   15   6  16
   69      2   18  17  19
   70      2   18  17  20
   71      2   19  17  20
   72      3    1   4   5  18
   73      3    1   2   3  12
   74      3    1   4   5   6
   75      3    1   4   5   3
   76      3    1   4  17  19
   77      3    1   4  17  20
   78      3    1   4  17  18
   79      3    1   2   3   5
   80      3    1   2   3  11
   81      3    2   1   4  13
   82      3    2   3   5  18
   83      3    2   1   4   5
   84      3    2   3   5   6
   85      3    2   3   5   4
   86      3    2   1   4  17
   87      3    3   2   1   8
   88      3    3   2   1   7
   89      3    3   5   4  17
   90      3    3   5   4  13
   91      3    3   2   1   4
   92      3    3   5   6  16
   93      3    3   5   6  14
   94      3    3   5   6  15
   95      3    3   5  18  17
   96      3    4   5  18  17
   97      3    4  17  18   5
   98      3    4   1   2   9
   99      3    4   5   6  16
  100      3    4   5   6  14
  101      3    4   5   6  15
  102      3    4   5   3  11
  103      3    4   5   3  12
  104      3    4   1   2  10
  105      3    5   4  17  18
  106      3    5   4  17  20
  107      3    5   4  17  19
  108      3    5   4   1   8
  109      3    5   4   1   7
  110      3    5  18  17  19
  111      3    5  18  17  20
  112      3    5   3   2   9
  113      3    5   3   2  10
  114      3    6   5   4  17
  115      3    6   5   4  13
  116      3    6   5  18  17
  117      3    6   5   3  11
  118      3    6   5   3  12
  119      3    7   1   2   9
  120      3    7   1   4  13
  121      3    7   1   4  17
  122      3    7   1   2  10
  123      3    8   1   4  13
  124      3    8   1   2   9
  125      3    8   1   4  17
  126      3    8   1   2  10
  127      3    9   2   3  12
  128      3    9   2   3  11
  129      3   10   2   3  12
  130      3   10   2   3  11
  131      3   11   3   5  18
  132      3   12   3   5  18
  133      3   13   4   5  18
  134      3   13   4  17  18
  135      3   13   4  17  20
  136      3   13   4  17  19
  137      3   14   6   5  18
  138      3   15   6   5  18
  139      3   16   6   5  18
  140      3   17   4   5  18

          INDEP./SYM. INTERNAL COORDINATES
          --------------------------------
 CRD  1=  -0.1036 (  5) -0.2735 ( 10) -0.4173 ( 39)  0.2896 ( 42)  0.2896 ( 49)
          -0.1052 ( 54) -0.2249 ( 56)  0.2393 ( 57) -0.2012 ( 74) -0.1077 ( 92)
          -0.1134 ( 95) -0.1465 (114) -0.1644 (115)  0.3072 (116)
 CRD  2=  -0.2283 (  1) -0.1681 ( 10) -0.2329 ( 27) -0.1013 ( 31) -0.2086 ( 38)
           0.1156 ( 40)  0.1156 ( 41) -0.1242 ( 42) -0.1141 ( 45) -0.1242 ( 49)
           0.1347 ( 56)  0.1045 ( 57) -0.1933 ( 60)  0.2830 ( 61)  0.1347 ( 65)
           0.1676 ( 72) -0.1057 ( 82)  0.1011 ( 84) -0.2724 ( 89)  0.1055 ( 95)
          -0.1501 (110) -0.1017 (111) -0.3127 (114) -0.1063 (115)  0.1157 (116)
           0.1181 (117) -0.1077 (132)  0.1514 (133) -0.1102 (138)
 CRD  3=   0.1322 (  1)  0.1081 ( 12)  0.1081 ( 13) -0.1108 ( 14)  0.5142 ( 15)
          -0.1630 ( 27)  0.1554 ( 31) -0.1268 ( 34) -0.1285 ( 40) -0.1285 ( 41)
           0.1585 ( 42)  0.1585 ( 49)  0.1562 ( 57)  0.2855 ( 60) -0.1311 ( 66)
          -0.1146 ( 67) -0.1611 ( 68)  0.1691 ( 72)  0.1352 ( 74) -0.1198 ( 82)
          -0.1889 ( 84) -0.1186 ( 89)  0.1767 ( 95)  0.1510 (116)
 CRD  4=   0.1260 (  1)  0.3144 ( 10)  0.3091 ( 14)  0.4018 ( 15)  0.1043 ( 27)
           0.1368 ( 45) -0.1326 ( 47)  0.2463 ( 56)  0.1993 ( 57)  0.1264 ( 58)
          -0.1259 ( 60) -0.1667 ( 67) -0.1414 ( 71) -0.1327 ( 72) -0.1733 ( 74)
           0.1669 ( 84) -0.1288 ( 94)  0.1114 (110)  0.1201 (118)  0.1042 (137)
 CRD  5=   0.2864 (  1)  0.1275 (  4) -0.1192 (  9) -0.3011 ( 10)  0.2766 ( 14)
          -0.1655 ( 20)  0.1261 ( 28)  0.1435 ( 31) -0.1268 ( 33) -0.1108 ( 36)
           0.1076 ( 44)  0.1455 ( 46)  0.1148 ( 48)  0.1148 ( 50) -0.1333 ( 51)
          -0.1499 ( 55) -0.1333 ( 59) -0.1021 ( 69) -0.1051 ( 70) -0.1103 ( 73)
          -0.1255 ( 75)  0.1663 ( 82)  0.1158 ( 83)  0.1001 ( 85)  0.2234 ( 86)
          -0.1315 (111)  0.1102 (121)  0.1547 (125)  0.1257 (131)  0.1002 (136)
 CRD  6=   0.1713 (  2)  0.1175 (  6) -0.1550 ( 12) -0.1550 ( 13)  0.2783 ( 14)
          -0.2049 ( 15)  0.1244 ( 23) -0.3197 ( 24) -0.1272 ( 25)  0.1621 ( 26)
           0.1222 ( 28) -0.1272 ( 29) -0.1138 ( 30)  0.2200 ( 31)  0.2591 ( 33)
           0.1012 ( 36) -0.2082 ( 44)  0.1781 ( 46) -0.1689 ( 47) -0.1548 ( 55)
          -0.1973 ( 56)  0.1098 ( 58)  0.1030 ( 62) -0.1261 ( 63)  0.1006 ( 67)
          -0.1363 ( 71) -0.1053 (104) -0.1453 (111)  0.1156 (112)
 CRD  7=  -0.3582 (  1) -0.2879 (  2) -0.1105 (  3)  0.1032 (  5)  0.2045 ( 10)
          -0.1275 ( 23) -0.1163 ( 26)  0.1947 ( 33) -0.1268 ( 35)  0.1461 ( 37)
          -0.1658 ( 43)  0.1021 ( 52)  0.1021 ( 53) -0.2995 ( 56)  0.2908 ( 57)
           0.1014 ( 62)  0.1413 ( 66) -0.1071 ( 69)  0.1198 ( 76)  0.1282 ( 95)
           0.1314 (107)  0.1022 (116)
 CRD  8=  -0.1691 (  1)  0.3025 ( 14)  0.1334 ( 19)  0.2052 ( 24) -0.1979 ( 31)
           0.1413 ( 45)  0.1023 ( 46) -0.1194 ( 47)  0.1141 ( 54) -0.2153 ( 56)
          -0.2737 ( 57)  0.1117 ( 58)  0.5274 ( 60) -0.1315 ( 66)  0.1952 ( 67)
          -0.1355 ( 71)
 CRD  9=   0.1141 (  1)  0.2356 (  2) -0.3898 (  5)  0.2782 ( 10) -0.1338 ( 14)
           0.1231 ( 17) -0.1199 ( 18)  0.1371 ( 24) -0.1074 ( 32) -0.1621 ( 36)
          -0.1466 ( 37) -0.1088 ( 45)  0.1266 ( 54)  0.1064 ( 55) -0.3262 ( 56)
           0.3442 ( 57)  0.1311 ( 66) -0.1554 ( 68)  0.1402 (127) -0.1348 (130)
 CRD 10=   0.4656 (  2)  0.1152 (  4)  0.5185 (  5)  0.1505 (  6)  0.1052 (  8)
           0.1555 (  9)  0.1179 ( 10)  0.1025 ( 30)  0.1421 ( 32)  0.1151 ( 34)
           0.1193 ( 35)  0.1133 ( 40)  0.1133 ( 41) -0.1774 ( 56)  0.1453 ( 57)
 CRD 11=  -0.2301 (  1)  0.3193 (  2) -0.1624 (  5) -0.1401 (  9) -0.1203 ( 10)
          -0.1751 ( 14)  0.1409 ( 15) -0.1738 ( 24)  0.2281 ( 28)  0.1706 ( 30)
           0.1133 ( 31) -0.1111 ( 32) -0.1247 ( 36) -0.2326 ( 43) -0.2119 ( 46)
           0.1266 ( 56) -0.1823 ( 57)  0.1985 ( 60) -0.1543 ( 66)  0.1077 ( 82)
           0.1034 ( 84)  0.1375 ( 85) -0.1307 ( 87)  0.1561 ( 98)  0.1935 (111)
           0.1151 (119) -0.1199 (125) -0.1143 (126)
 CRD 12=   0.1791 (  1) -0.2104 (  2) -0.1267 (  4)  0.1871 (  5) -0.1085 ( 12)
          -0.1085 ( 13) -0.1987 ( 14) -0.1039 ( 18)  0.1224 ( 19)  0.1312 ( 23)
          -0.1281 ( 26)  0.1050 ( 34) -0.1711 ( 35)  0.1967 ( 37)  0.1805 ( 44)
          -0.2091 ( 45) -0.2070 ( 56)  0.2605 ( 60)  0.1033 ( 61) -0.1176 ( 65)
           0.1187 ( 67) -0.1204 ( 68) -0.1533 ( 76) -0.1031 ( 78)  0.1004 ( 84)
          -0.1334 ( 88)  0.1574 (104) -0.1655 (110) -0.1075 (120) -0.1322 (121)
 CRD 13=   0.2656 ( 10)  0.2043 ( 11)  0.1534 ( 12)  0.1534 ( 13) -0.1411 ( 15)
           0.1147 ( 18)  0.1393 ( 21) -0.1604 ( 22)  0.1025 ( 28) -0.1267 ( 35)
           0.1003 ( 42) -0.2771 ( 45)  0.2408 ( 46)  0.1003 ( 49)  0.1063 ( 54)
           0.1734 ( 56) -0.2567 ( 57)  0.1671 ( 68) -0.1105 ( 80) -0.3036 (110)
          -0.2928 (111)  0.1126 (116)
 CRD 14=  -0.1291 (  1) -0.1128 (  4)  0.1256 (  8) -0.2131 (  9)  0.1121 ( 16)
          -0.2388 ( 20)  0.1982 ( 26) -0.1263 ( 28) -0.1587 ( 34)  0.1591 ( 36)
          -0.1308 ( 37) -0.1216 ( 45)  0.1996 ( 46) -0.2166 ( 54)  0.2583 ( 55)
           0.1093 ( 60) -0.1247 ( 70)  0.1266 ( 73) -0.1052 ( 79)  0.1043 ( 80)
          -0.1084 ( 83)  0.1076 ( 88)  0.1281 ( 91) -0.1023 ( 92) -0.1036 ( 93)
          -0.1204 ( 94)  0.1034 (103) -0.1103 (110) -0.2058 (111) -0.2132 (112)
          -0.2234 (113)  0.1401 (118)  0.1104 (132)
 CRD 15=  -0.1994 (  1) -0.2089 (  8) -0.1410 ( 10) -0.5164 ( 11)  0.1172 ( 21)
          -0.1132 ( 23)  0.1289 ( 25)  0.1289 ( 29)  0.1231 ( 35) -0.1357 ( 36)
           0.1012 ( 37) -0.2000 ( 45)  0.2212 ( 46)  0.1448 ( 69)  0.1025 ( 78)
          -0.1256 ( 87) -0.1210 (107)  0.1003 (109) -0.1696 (110) -0.1754 (111)
 CRD 16=  -0.2115 (  3)  0.2621 (  6) -0.3151 (  7)  0.1365 (  8) -0.1954 ( 16)
           0.1883 ( 20)  0.1507 ( 21)  0.1408 ( 26) -0.1623 ( 28)  0.1018 ( 32)
          -0.1470 ( 54)  0.1029 ( 70)  0.1722 ( 73)  0.2048 ( 80) -0.1290 ( 87)
           0.1767 ( 92)  0.1779 ( 93)  0.1860 ( 94)  0.1705 ( 99)  0.1716 (100)
           0.1798 (101) -0.1084 (112)  0.1120 (137)  0.1202 (138)  0.1109 (139)
 CRD 17=   0.1473 (  1)  0.3459 (  6) -0.3850 (  7) -0.2497 (  8)  0.1125 ( 11)
           0.1704 ( 16) -0.1257 ( 21) -0.1232 ( 34) -0.1385 ( 36)  0.1162 ( 37)
          -0.1137 ( 43)  0.1370 ( 44)  0.1604 ( 73)  0.1496 ( 80) -0.1915 ( 87)
          -0.2054 ( 88) -0.1582 ( 92) -0.1513 ( 93) -0.1611 ( 94) -0.1015 (101)
           0.1188 (134)
 CRD 18=   0.1463 (  1)  0.2618 (  4)  0.1023 (  8) -0.1592 (  9) -0.1913 ( 11)
           0.3412 ( 16)  0.1798 ( 19) -0.1822 ( 32)  0.1004 ( 35)  0.1513 ( 43)
          -0.1200 ( 44) -0.1186 ( 45)  0.1095 ( 47) -0.1088 ( 56) -0.1077 ( 57)
           0.1415 ( 67) -0.1130 ( 72) -0.1406 ( 74)  0.1113 ( 76)  0.1649 ( 77)
           0.1183 ( 84) -0.1170 ( 98) -0.1174 (102) -0.1228 (104)  0.1139 (106)
           0.1025 (109) -0.1286 (110) -0.1029 (115) -0.1332 (131)  0.1282 (135)
 CRD 19=  -0.1018 (  1) -0.4135 (  3)  0.2228 (  4) -0.1090 (  7) -0.2243 ( 17)
          -0.2409 ( 18) -0.2234 ( 19) -0.1379 ( 20) -0.1050 ( 22)  0.1130 ( 30)
          -0.1594 ( 35)  0.1335 ( 56)  0.1117 ( 57)  0.1153 ( 60) -0.1296 ( 66)
          -0.1297 ( 67) -0.1112 ( 68) -0.1208 ( 77) -0.1094 ( 78)  0.1106 ( 81)
          -0.1309 ( 98) -0.1405 (104) -0.1070 (109) -0.1005 (135)
 CRD 20=  -0.2116 (  3)  0.1484 (  4)  0.1235 (  8) -0.1019 (  9) -0.1257 ( 11)
           0.1263 ( 15) -0.2012 ( 16)  0.4043 ( 17)  0.3847 ( 18)  0.2913 ( 19)
           0.1351 ( 30) -0.1351 ( 35) -0.1184 ( 56) -0.1082 ( 57) -0.1613 ( 60)
           0.1462 ( 66)  0.1110 ( 67)  0.1415 ( 68) -0.1042 (108) -0.1051 (109)
          -0.1309 (121) -0.1301 (125)
 CRD 21=  -0.2829 (  8)  0.2836 (  9) -0.1290 ( 11)  0.2688 ( 16)  0.1502 ( 17)
           0.1363 ( 18)  0.2894 ( 19) -0.1615 ( 20) -0.1985 ( 22)  0.1888 ( 32)
          -0.1779 ( 34)  0.1143 ( 47) -0.1483 ( 69) -0.1062 ( 82)  0.1765 (102)
           0.1709 (103)  0.1124 (112)  0.1209 (113)  0.1936 (117)  0.1880 (118)
          -0.1153 (134)  0.1132 (137)  0.1123 (139)
 CRD 22=   0.1191 (  1)  0.2705 (  4) -0.1116 (  6) -0.2261 ( 11) -0.1377 ( 15)
          -0.1620 ( 16) -0.1271 ( 17) -0.1808 ( 18) -0.1243 ( 19)  0.3417 ( 21)
           0.3116 ( 22)  0.1160 ( 30)  0.1283 ( 32) -0.1635 ( 34) -0.1101 ( 47)
           0.1091 ( 55)  0.1082 ( 76)  0.1340 ( 77)  0.1515 (102)  0.1653 (103)
           0.1014 (117)  0.1152 (118) -0.1344 (121) -0.1458 (125)  0.1562 (131)
           0.1700 (132)  0.1209 (135)
 CRD 23=  -0.1603 (  4)  0.1822 ( 11)  0.1552 ( 16)  0.5267 ( 21)  0.5801 ( 22)
          -0.1163 ( 45)  0.2355 ( 71) -0.1611 ( 77) -0.1257 (106)  0.1074 (111)
          -0.1666 (135)
 CRD 24=   0.1054 ( 14)  0.2621 ( 16) -0.1984 ( 17) -0.2946 ( 21)  0.2117 ( 22)
           0.1343 ( 30) -0.1089 ( 35) -0.1092 ( 43)  0.1114 ( 44)  0.1920 ( 69)
          -0.1916 ( 70) -0.1114 ( 76)  0.1118 ( 78)  0.1331 ( 92)  0.1818 ( 99)
           0.1273 (100)  0.1369 (101) -0.1068 (106) -0.1580 (107) -0.1373 (108)
          -0.1261 (109) -0.1431 (120) -0.1108 (121) -0.1544 (123) -0.1220 (125)
          -0.1082 (135) -0.1594 (136)  0.1624 (137)  0.1720 (138)  0.2168 (139)
 CRD 25=  -0.4150 (  3)  0.1559 (  6)  0.1232 (  7)  0.1345 (  8) -0.1346 ( 16)
          -0.1280 ( 17) -0.2270 ( 21)  0.1637 ( 22) -0.1076 ( 26) -0.1173 ( 36)
           0.1654 ( 43) -0.1054 ( 44)  0.1644 ( 69) -0.1484 ( 70) -0.1112 ( 72)
          -0.1055 ( 76) -0.1140 ( 77)  0.1202 ( 87)  0.1003 (103) -0.1143 (106)
          -0.1058 (107)  0.1117 (109)  0.1288 (119)  0.2032 (124)  0.1586 (126)
           0.1098 (127)  0.1036 (128)  0.1300 (129)  0.1238 (130)  0.1226 (132)
          -0.1177 (133)
 CRD 26=   0.1335 (  8)  0.1274 (  9)  0.4586 ( 17) -0.5684 ( 18) -0.2577 ( 66)
           0.3131 ( 68) -0.1776 ( 92)  0.1508 ( 94) -0.1636 ( 99)  0.1101 (100)
           0.1647 (101)  0.1109 (137)  0.1655 (138) -0.1628 (139)
 CRD 27=  -0.1202 (  6) -0.1603 (  7)  0.1287 (  8)  0.1190 (  9) -0.3821 ( 17)
          -0.1682 ( 18)  0.5957 ( 19)  0.2119 ( 66) -0.3209 ( 67)  0.1031 ( 68)
          -0.1963 ( 93)  0.1416 ( 94) -0.2136 (100)  0.1243 (101) -0.2116 (137)
           0.1264 (138)
 CRD 28=  -0.4428 (  6) -0.4586 (  7)  0.3793 (  8)  0.3378 (  9)  0.1861 ( 18)
          -0.1962 ( 19) -0.1677 ( 63)  0.1340 ( 64)  0.1108 ( 67)  0.1011 (122)
           0.1420 (128) -0.1015 (129)
 CRD 29=   0.2825 (  4) -0.3054 (  6) -0.2895 (  7) -0.3572 (  8) -0.4977 (  9)
          -0.1001 ( 44) -0.1151 ( 63) -0.1687 ( 64)  0.1616 (122)  0.1658 (127)
           0.1008 (131)
 CRD 30=  -0.1214 (  1)  0.4324 (  3)  0.5352 (  4)  0.2970 (  6)  0.1756 (  7)
           0.1560 (  8)  0.1516 (  9) -0.1120 ( 30)  0.2318 ( 62) -0.1227 ( 77)
           0.1042 ( 88)  0.1263 (108)  0.1708 (119)  0.1183 (123)  0.1410 (125)
          -0.1017 (135)
 CRD 31=  -0.1808 (  3)  0.1757 (  4)  0.3082 (  8) -0.2159 (  9) -0.1073 ( 10)
           0.1663 ( 11)  0.1196 ( 14)  0.2369 ( 16)  0.1623 ( 20)  0.1003 ( 21)
          -0.1106 ( 22) -0.1271 ( 26)  0.1108 ( 28) -0.1242 ( 36)  0.1129 ( 37)
          -0.1079 ( 54)  0.1082 ( 70)  0.1056 ( 72)  0.1030 ( 77)  0.1260 ( 80)
           0.1071 ( 98) -0.1132 (102) -0.1347 (108)  0.1395 (119)  0.1220 (122)
          -0.1147 (123)  0.1274 (124) -0.1208 (125)  0.1099 (126)  0.1456 (127)
           0.1968 (128)  0.1595 (129)  0.2107 (130) -0.1159 (131)  0.1083 (133)
 CRD 32=  -0.1693 (  8)  0.2059 (  9)  0.1879 ( 11)  0.1046 ( 12)  0.1046 ( 13)
           0.1543 ( 16)  0.4833 ( 20) -0.1168 ( 45)  0.1123 ( 48)  0.1123 ( 50)
           0.1608 ( 69)  0.1279 ( 70) -0.1655 ( 76)  0.1327 ( 82) -0.1170 ( 94)
          -0.1543 (107)  0.1178 (118)  0.1363 (131)  0.1874 (132) -0.2277 (136)
          -0.1588 (137) -0.1888 (138) -0.1417 (139)
 CRD 33=  -0.1313 (  3)  0.1385 (  4)  0.2666 (  6) -0.2894 (  7) -0.1800 ( 73)
          -0.1186 ( 79) -0.1899 ( 80)  0.1974 ( 87)  0.1723 ( 88)  0.1245 ( 91)
           0.1557 ( 98)  0.1677 (104) -0.1071 (108) -0.1421 (112) -0.1492 (113)
           0.2035 (119)  0.2155 (122)  0.2286 (124)  0.2406 (126) -0.2035 (127)
          -0.2133 (128) -0.2106 (129) -0.2204 (130)
 CRD 34=   0.1881 (  3) -0.1895 (  4)  0.1992 (  6) -0.1761 (  7)  0.1861 (  8)
          -0.1643 (  9)  0.1083 ( 10) -0.4250 ( 11)  0.1327 ( 12)  0.1327 ( 13)
           0.1339 ( 16) -0.1734 ( 17) -0.1271 ( 18) -0.1445 ( 19)  0.1237 ( 22)
          -0.1136 ( 56) -0.1545 ( 57) -0.1528 ( 60)  0.1258 ( 66)  0.1492 ( 67)
           0.1570 ( 68)  0.1318 ( 72)  0.1395 (110)  0.1005 (133) -0.1581 (134)
          -0.1127 (135) -0.1191 (136)
 CRD 35=  -0.1272 (  3)  0.1116 (  4)  0.1486 (  7) -0.1220 (  8)  0.1591 (  9)
           0.1244 ( 10) -0.2136 ( 11) -0.1028 ( 12) -0.1028 ( 13)  0.1920 ( 14)
          -0.1531 ( 16) -0.1030 ( 20) -0.2100 ( 21)  0.1067 ( 44) -0.1495 ( 45)
          -0.1864 ( 46)  0.2032 ( 65)  0.1358 ( 70)  0.1970 ( 71)  0.1062 ( 73)
          -0.1539 ( 81)  0.1962 ( 90) -0.1607 (110)  0.2137 (111)  0.1190 (115)
          -0.1720 (120)  0.1007 (125)  0.1165 (127)  0.2408 (133)
 CRD 36=  -0.1217 (  4) -0.2636 ( 11) -0.2134 ( 15)  0.3293 ( 16)  0.1346 ( 17)
           0.2732 ( 18)  0.1021 ( 19)  0.2169 ( 20)  0.1178 ( 23) -0.1001 ( 35)
           0.2177 ( 56)  0.1501 ( 57) -0.1337 ( 58)  0.1584 ( 60) -0.1081 ( 64)
          -0.2058 ( 66) -0.2335 ( 67) -0.1169 (109) -0.1152 (120)  0.1427 (131)
           0.1172 (135)
 CRD 37=   0.1542 (  3) -0.1332 (  4)  0.1227 (  6) -0.1935 (  7)  0.1921 (  8)
          -0.1558 (  9)  0.4454 ( 14)  0.1175 ( 16) -0.2465 ( 20) -0.1443 ( 22)
          -0.2203 ( 45) -0.2206 ( 46)  0.1323 ( 58) -0.1043 ( 67)  0.1531 ( 69)
           0.1110 ( 70)  0.1917 ( 71)  0.1253 (102) -0.1076 (104) -0.2330 (110)
           0.2261 (111)
 CRD 38=  -0.1024 (  3) -0.1448 (  6)  0.1308 (  9)  0.1203 ( 10)  0.4140 ( 15)
           0.2018 ( 16) -0.1687 ( 17) -0.2214 ( 19)  0.1113 ( 23)  0.1319 ( 32)
           0.1406 ( 34) -0.1347 ( 36) -0.1020 ( 52) -0.1020 ( 53) -0.1461 ( 56)
          -0.1721 ( 57) -0.1637 ( 60)  0.1247 ( 62)  0.1525 ( 66)  0.1055 ( 67)
           0.2396 ( 68)  0.1503 ( 98) -0.1194 (103) -0.1578 (118)  0.1944 (119)
          -0.1241 (126)  0.1274 (131)  0.1190 (134)  0.1078 (135)
 CRD 39=   0.2768 (  2)  0.1323 (  4) -0.3364 (  5) -0.1108 (  6)  0.2270 ( 10)
           0.1121 ( 16) -0.1494 ( 21)  0.1405 ( 22) -0.1860 ( 26) -0.2305 ( 28)
           0.1503 ( 36)  0.1858 ( 37) -0.1212 ( 54) -0.1398 ( 55) -0.1141 ( 62)
           0.1280 ( 64) -0.1230 ( 73)  0.1184 ( 80)  0.1419 (104) -0.1846 (112)
           0.1274 (113) -0.1410 (119)  0.1012 (121)  0.1467 (126) -0.3171 (127)
           0.2363 (130)
 CRD 40=   0.2542 (  1) -0.1729 (  2) -0.1395 (  6) -0.1693 ( 15)  0.1102 ( 17)
          -0.3243 ( 21)  0.3670 ( 22) -0.1440 ( 36) -0.1103 ( 37) -0.1033 ( 44)
           0.1023 ( 46)  0.1086 ( 52)  0.1086 ( 53) -0.1167 ( 54)  0.1260 ( 63)
          -0.1022 ( 68) -0.1202 ( 69)  0.1495 ( 70) -0.1028 ( 78)  0.1461 ( 98)
           0.1184 (106)  0.2231 (119) -0.1478 (126) -0.1322 (132) -0.1923 (134)
 CRD 41=   0.2273 (  1) -0.1305 (  2)  0.1084 ( 10) -0.1536 ( 12) -0.1536 ( 13)
          -0.2206 ( 17)  0.1443 ( 18)  0.1031 ( 19) -0.1132 ( 26)  0.2017 ( 30)
           0.1732 ( 35) -0.1607 ( 43) -0.1960 ( 44)  0.1012 ( 54)  0.1142 ( 63)
          -0.1906 ( 66) -0.1109 ( 87)  0.1201 ( 88) -0.1077 ( 92)  0.1311 ( 93)
           0.1782 (100) -0.1618 (108)  0.1026 (109)  0.1230 (113)  0.1328 (119)
           0.1036 (120)  0.1346 (121)  0.1205 (122) -0.1608 (123) -0.1297 (125)
          -0.1105 (126) -0.1692 (128)  0.1550 (129) -0.1894 (139)
 CRD 42=  -0.2528 ( 10)  0.1107 ( 11)  0.1150 ( 15)  0.1364 ( 16)  0.1139 ( 18)
          -0.2124 ( 19) -0.1974 ( 21)  0.2587 ( 22) -0.1097 ( 32) -0.1166 ( 34)
          -0.1097 ( 45)  0.1025 ( 46)  0.1518 ( 54)  0.1774 ( 55) -0.1343 ( 63)
          -0.1098 ( 65) -0.1284 ( 67)  0.1274 ( 68)  0.1318 ( 70)  0.1062 ( 73)
           0.1009 ( 77) -0.1328 ( 80)  0.1870 ( 94) -0.1052 ( 95)  0.1243 (101)
           0.1092 (106) -0.1039 (111) -0.1385 (124)  0.1513 (127) -0.1579 (130)
           0.1610 (135)  0.1299 (138)
 CRD 43=  -0.1813 ( 12) -0.1813 ( 13) -0.1541 ( 14) -0.3813 ( 20)  0.2126 ( 21)
           0.1006 ( 22) -0.1105 ( 23)  0.1797 ( 69)  0.1349 ( 70) -0.3406 ( 71)
          -0.2040 ( 76)  0.2087 ( 77)  0.1765 (106) -0.2362 (107)  0.1236 (110)
           0.1201 (135) -0.2927 (136)
 CRD 44=  -0.1429 (  1)  0.1399 (  3) -0.1023 (  4)  0.1569 (  6) -0.1536 (  7)
           0.2520 ( 15) -0.1010 ( 16) -0.1277 ( 17) -0.1651 ( 18)  0.1984 ( 19)
          -0.1683 ( 21)  0.1911 ( 22)  0.1182 ( 27) -0.1016 ( 60)  0.2170 ( 67)
           0.1227 ( 87)  0.1546 ( 89) -0.1662 ( 94) -0.1163 ( 95) -0.1264 ( 98)
           0.1629 (100) -0.1015 (101)  0.1008 (106) -0.1025 (111)  0.1120 (112)
           0.1373 (113) -0.1288 (120) -0.1309 (123)  0.1135 (130)  0.1473 (135)
           0.1060 (136)  0.1116 (137) -0.1527 (138)
 CRD 45=   0.1017 (  1)  0.2152 (  2) -0.1040 (  3) -0.1765 (  4)  0.1171 (  5)
          -0.1084 (  6) -0.1396 ( 11)  0.1721 ( 12)  0.1721 ( 13) -0.1139 ( 18)
          -0.2229 ( 20) -0.1090 ( 28) -0.1007 ( 32)  0.2260 ( 62)  0.1187 ( 64)
           0.1075 ( 69) -0.1473 ( 71) -0.1623 ( 76)  0.1160 ( 86) -0.1194 ( 87)
           0.1296 ( 88)  0.1242 ( 92) -0.1218 (102)  0.1363 (106) -0.1156 (107)
          -0.1346 (109) -0.1338 (117)  0.1602 (119) -0.1315 (120)  0.1784 (122)
           0.1726 (125) -0.1018 (127) -0.1115 (131)  0.1017 (134)  0.2124 (135)
 CRD 46=   0.1065 (  1) -0.1678 (  5)  0.1700 (  9) -0.1136 ( 12) -0.1136 ( 13)
           0.2519 ( 17) -0.2491 ( 18)  0.1337 ( 56) -0.1532 ( 57) -0.1877 ( 64)
           0.2056 ( 66) -0.1786 ( 68)  0.1266 ( 73)  0.2228 ( 92) -0.1092 ( 93)
           0.2350 ( 99) -0.1243 (103)  0.1356 (116) -0.1467 (118)  0.1182 (121)
          -0.1013 (123)  0.1122 (127)  0.1634 (129) -0.1294 (137) -0.1093 (138)
           0.2026 (139)
 CRD 47=  -0.2575 (  3)  0.1555 (  4)  0.2641 (  8) -0.1735 (  9)  0.1002 ( 19)
          -0.1382 ( 30)  0.1232 ( 32)  0.1036 ( 35)  0.1167 ( 54) -0.1040 ( 55)
          -0.1366 ( 73) -0.2042 ( 80) -0.1481 ( 81) -0.1052 ( 84) -0.1029 ( 86)
          -0.1817 ( 87) -0.1026 ( 88)  0.1435 ( 90) -0.1310 ( 94) -0.1250 (101)
           0.1573 (102)  0.1558 (108)  0.1146 (115)  0.1173 (117) -0.1174 (122)
          -0.1471 (124)  0.1281 (125) -0.1965 (126) -0.1327 (128) -0.1301 (130)
           0.1354 (131)  0.1325 (133) -0.1060 (138)
 CRD 48=   0.2309 (  5) -0.2249 (  7) -0.1384 ( 12) -0.1384 ( 13) -0.1879 ( 14)
           0.1095 ( 15)  0.1142 ( 17) -0.1941 ( 19) -0.1138 ( 23) -0.1149 ( 37)
          -0.1167 ( 39)  0.1859 ( 63)  0.1036 ( 65)  0.1093 ( 66) -0.1277 ( 67)
          -0.1383 ( 74) -0.1461 ( 81)  0.1087 ( 84)  0.1569 ( 90) -0.1760 ( 93)
          -0.1182 (100)  0.1323 (101) -0.2113 (104)  0.1673 (113)  0.1700 (118)
          -0.1292 (120) -0.2078 (122) -0.1106 (123) -0.1498 (126)  0.1125 (129)
           0.1564 (130)  0.1307 (132) -0.1600 (137)
 CRD 49=   0.2122 (  1) -0.1765 (  2) -0.1469 (  5)  0.2513 (  6)  0.1663 ( 10)
           0.2102 ( 24) -0.1195 ( 31) -0.1053 ( 33)  0.1068 ( 35) -0.1015 ( 44)
          -0.2284 ( 63)  0.1108 ( 64) -0.1979 ( 73)  0.1885 ( 88) -0.1928 ( 98)
           0.1998 (112)  0.2055 (122) -0.3118 (124)  0.3156 (128) -0.2158 (129)
 CRD 50=   0.1306 (  1)  0.2360 (  2) -0.1319 (  4) -0.2120 (  5)  0.1762 (  9)
          -0.1523 ( 10) -0.1154 ( 23) -0.1344 ( 26)  0.1527 ( 31) -0.1239 ( 33)
           0.1200 ( 36)  0.1276 ( 39)  0.1719 ( 62) -0.1948 ( 64) -0.1099 ( 80)
           0.1356 ( 84)  0.1288 ( 88) -0.1564 ( 92) -0.1064 ( 99)  0.1178 (102)
          -0.1323 (103)  0.1128 (108) -0.1033 (109)  0.1774 (117) -0.1301 (120)
          -0.1681 (121)  0.1101 (122) -0.1503 (124) -0.1310 (128)  0.2397 (129)
          -0.1692 (132)
 CRD 51=  -0.1730 (  4)  0.1365 (  7)  0.1413 ( 11) -0.2907 ( 12) -0.2907 ( 13)
          -0.1804 ( 23)  0.1336 ( 25) -0.1051 ( 28)  0.1336 ( 29) -0.1135 ( 33)
          -0.1401 ( 35)  0.1202 ( 43)  0.1040 ( 62)  0.1750 ( 76)  0.1255 ( 78)
           0.1415 ( 79)  0.1621 ( 81)  0.1188 ( 83) -0.1197 ( 84) -0.1652 ( 91)
          -0.1354 (109)  0.1020 (119) -0.2563 (121)  0.1950 (122)  0.1067 (123)
           0.1230 (126) -0.1240 (129) -0.1070 (130) -0.1007 (134) -0.1297 (135)
 CRD 52=  -0.1950 (  1)  0.2366 ( 10)  0.1560 ( 11) -0.2058 ( 15)  0.1723 ( 25)
           0.1723 ( 29) -0.1861 ( 40) -0.1861 ( 41)  0.1806 ( 42)  0.1806 ( 49)
          -0.2197 ( 52) -0.2197 ( 53)  0.1606 ( 72) -0.1234 ( 74)  0.1110 ( 85)
          -0.2155 ( 96)  0.1189 ( 97)  0.1522 ( 99)  0.1003 (101) -0.1598 (105)
          -0.1338 (106) -0.1344 (107) -0.1270 (115)  0.1570 (133)  0.1943 (140)
 CRD 53=  -0.1396 (  3) -0.1193 (  7) -0.1445 (  8) -0.1724 ( 12) -0.1724 ( 13)
           0.1295 ( 16) -0.1056 ( 30) -0.1118 ( 32)  0.1032 ( 44)  0.1463 ( 74)
          -0.1859 ( 79)  0.1025 ( 82) -0.1386 ( 83)  0.1089 ( 85) -0.1528 ( 86)
          -0.1537 ( 90)  0.1932 ( 91)  0.1483 ( 92)  0.1844 ( 93) -0.2257 (117)
          -0.1192 (118)  0.1607 (120)  0.2656 (123) -0.1127 (124) -0.1531 (126)
           0.1144 (128)  0.1027 (129)  0.1552 (130) -0.1197 (135)
 CRD 54=   0.1650 ( 14) -0.1542 ( 16)  0.1458 ( 48)  0.1458 ( 50) -0.1056 ( 51)
          -0.1056 ( 59) -0.1008 ( 65)  0.1220 ( 72)  0.2414 ( 75)  0.1308 ( 81)
          -0.1910 ( 83) -0.1831 ( 85)  0.1134 ( 89) -0.1134 ( 92) -0.1811 ( 93)
           0.1825 ( 99)  0.1149 (100)  0.2347 (101) -0.1467 (103) -0.1113 (108)
          -0.1526 (109) -0.1545 (114) -0.3480 (115)  0.1719 (117)  0.1241 (118)
           0.1692 (120)  0.2104 (123) -0.1993 (133)

 THE DETERMINANT OF THE G MATRIX IS 10**(   -12)


                     --------------------
                     INTERNAL COORDINATES
                     --------------------

                 - - ATOMS - -         COORDINATE      COORDINATE
 NO.   TYPE    I  J  K  L  M  N        (BOHR,RAD)       (ANG,DEG)
 ----------------------------------------------------------------
   1 STRETCH   1  4                     2.8897119       1.5291698
   2 STRETCH   1  2                     2.9342564       1.5527417
   3 STRETCH   1  7                     2.0573268       1.0886905
   4 STRETCH   1  8                     2.0565635       1.0882866
   5 STRETCH   2  3                     2.9326190       1.5518753
   6 STRETCH   2 10                     2.0535323       1.0866826
   7 STRETCH   2  9                     2.0549139       1.0874137
   8 STRETCH   3 12                     2.0519152       1.0858268
   9 STRETCH   3 11                     2.0554284       1.0876860
  10 STRETCH   3  5                     2.9388323       1.5551632
  11 STRETCH   4 13                     2.0411974       1.0801552
  12 STRETCH   4  5                     2.6704391       1.4131356
  13 STRETCH   4  5                     2.6704391       1.4131356
  14 STRETCH   4 17                     3.9306300       2.0800000
  15 STRETCH   5  6                     2.9053455       1.5374427
  16 STRETCH   5 18                     3.7983493       2.0100000
  17 STRETCH   6 15                     2.0517644       1.0857471
  18 STRETCH   6 14                     2.0502871       1.0849653
  19 STRETCH   6 16                     2.0580550       1.0890759
  20 STRETCH  17 18                     3.7416574       1.9800000
  21 STRETCH  17 20                     2.1785561       1.1528423
  22 STRETCH  17 19                     2.1782132       1.1526609
  23 BEND      1  4 13                  2.1239670     121.6943433
  24 BEND      1  2  3                  1.8471256     105.8325023
  25 BEND      1  4  5                  1.9548731     112.0059756
  26 BEND      1  2 10                  1.9615244     112.3870688
  27 BEND      1  4 17                  1.9658401     112.6343410
  28 BEND      1  2  9                  1.9117634     109.5359752
  29 BEND      1  4  5                  1.9548731     112.0059756
  30 BEND      2  1  8                  1.9439589     111.3806433
  31 BEND      2  3  5                  1.8306566     104.8888945
  32 BEND      2  3 11                  1.9556209     112.0488253
  33 BEND      2  1  4                  1.8128126     103.8665083
  34 BEND      2  3 12                  1.9362117     110.9367608
  35 BEND      2  1  7                  1.9403734     111.1752082
  36 BEND      3  2  9                  1.9128345     109.5973413
  37 BEND      3  2 10                  1.9496972     111.7094189
  38 BEND      3  5 18                  1.5971880      91.5121317
  39 BEND      3  5  6                  2.0939765     119.9760167
  40 BEND      3  5  4                  1.8912500     108.3606425
  41 BEND      3  5  4                  1.8912500     108.3606425
  42 BEND      4  5  6                  2.1065896     120.6986910
  43 BEND      4  1  8                  1.9298463     110.5720495
  44 BEND      4  1  7                  1.9655034     112.6150479
  45 BEND      4 17 19                  1.8484259     105.9070011
  46 BEND      4 17 20                  1.8526559     106.1493611
  47 BEND      4 17 18                  1.7138358      98.1955598
  48 BEND      4  5 18                  2.2089039     126.5608688
  49 BEND      4  5  6                  2.1065896     120.6986910
  50 BEND      4  5 18                  2.2089039     126.5608688
  51 BEND      5  4 17                  1.2460185      71.3916012
  52 BEND      5  4 13                  2.1189177     121.4050407
  53 BEND      5  4 13                  2.1189177     121.4050407
  54 BEND      5  3 11                  1.9206188     110.0433532
  55 BEND      5  3 12                  1.9409759     111.2097279
  56 BEND      5  6 14                  1.9447033     111.4232898
  57 BEND      5  6 15                  1.9318281     110.6855948
  58 BEND      5 18 17                  1.1136877      63.8096042
  59 BEND      5  4 17                  1.2460185      71.3916012
  60 BEND      5  6 16                  1.8939906     108.5176672
  61 BEND      6  5 18                  1.4990936      85.8917376
  62 BEND      7  1  8                  1.8726694     107.2960555
  63 BEND      9  2 10                  1.8807275     107.7577492
  64 BEND     11  3 12                  1.8805720     107.7488402
  65 BEND     13  4 17                  1.8363578     105.2155541
  66 BEND     14  6 16                  1.8989837     108.8037489
  67 BEND     14  6 15                  1.9014459     108.9448263
  68 BEND     15  6 16                  1.8918841     108.3969724
  69 BEND     18 17 19                  1.8293394     104.8134283
  70 BEND     18 17 20                  1.8500668     106.0010180
  71 BEND     19 17 20                  2.2883647     131.1136376
  72 TORSION   1  4  5 18              -1.8448743    -105.7035133
  73 TORSION   1  2  3 12               1.7214059      98.6292946
  74 TORSION   1  4  5  6               2.5242293     144.6276833
  75 TORSION   1  4  5  3               0.0104969       0.6014283
  76 TORSION   1  4 17 19              -0.0495742      -2.8403933
  77 TORSION   1  4 17 20              -2.5383059    -145.4342133
  78 TORSION   1  4 17 18               1.8360371     105.1971787
  79 TORSION   1  2  3  5              -0.3759213     -21.5387028
  80 TORSION   1  2  3 11              -2.4591559    -140.8992557
  81 TORSION   2  1  4 13               2.4678866     141.3994882
  82 TORSION   2  3  5 18               2.4919433     142.7778366
  83 TORSION   2  1  4  5              -0.2464219     -14.1189375
  84 TORSION   2  3  5  6              -2.2880040    -131.0929737
  85 TORSION   2  3  5  4               0.2310562      13.2385476
  86 TORSION   2  1  4 17              -1.6113893     -92.3258046
  87 TORSION   3  2  1  8               2.4549996     140.6611186
  88 TORSION   3  2  1  7              -1.7406341     -99.7309863
  89 TORSION   3  5  4 17               1.8879895     108.1738284
  90 TORSION   3  5  4 13              -2.7052207    -154.9977283
  91 TORSION   3  2  1  4               0.3774656      21.6271877
  92 TORSION   3  5  6 16               1.2697881      72.7535011
  93 TORSION   3  5  6 14              -0.8206562     -47.0201376
  94 TORSION   3  5  6 15              -2.9393994    -168.4151822
  95 TORSION   3  5 18 17              -2.0315029    -116.3965437
  96 TORSION   4  5 18 17              -0.0361913      -2.0736068
  97 TORSION   4 17 18  5               0.0199505       1.1430783
  98 TORSION   4  1  2  9              -1.6832481     -96.4430095
  99 TORSION   4  5  6 16              -1.1726086     -67.1855254
 100 TORSION   4  5  6 14               3.0201323     173.0408359
 101 TORSION   4  5  6 15               0.9013891      51.6457913
 102 TORSION   4  5  3 11               2.3375937     133.9342515
 103 TORSION   4  5  3 12              -1.8631012    -106.7478331
 104 TORSION   4  1  2 10               2.5099736     143.8108956
 105 TORSION   5  4 17 18              -0.0268696      -1.5395160
 106 TORSION   5  4 17 20               1.8819727     107.8290921
 107 TORSION   5  4 17 19              -1.9124810    -109.5770879
 108 TORSION   5  4  1  8              -2.3335937    -133.7050729
 109 TORSION   5  4  1  7               1.8547847     106.2713341
 110 TORSION   5 18 17 19               1.9212437     110.0791565
 111 TORSION   5 18 17 20              -1.8910070    -108.3467206
 112 TORSION   5  3  2  9               1.6840780      96.4905592
 113 TORSION   5  3  2 10              -2.5159773    -144.1548822
 114 TORSION   6  5  4 17              -1.8814635    -107.7999166
 115 TORSION   6  5  4 13              -0.1914883     -10.9714733
 116 TORSION   6  5 18 17               2.1582073     123.6561680
 117 TORSION   6  5  3 11              -0.1814666     -10.3972698
 118 TORSION   6  5  3 12               1.9010239     108.9206456
 119 TORSION   7  1  2  9               2.4818375     142.1988165
 120 TORSION   7  1  4 13              -1.7140920     -98.2102401
 121 TORSION   7  1  4 17               0.4898174      28.0644671
 122 TORSION   7  1  2 10               0.3918739      22.4527216
 123 TORSION   8  1  4 13               0.3807148      21.8133528
 124 TORSION   8  1  2  9               0.3942860      22.5909213
 125 TORSION   8  1  4 17               2.5846242     148.0880600
 126 TORSION   8  1  2 10              -1.6956777     -97.1551735
 127 TORSION   9  2  3 12              -2.5017801    -143.3414434
 128 TORSION   9  2  3 11              -0.3991567     -22.8699937
 129 TORSION  10  2  3 12              -0.4186501     -23.9868849
 130 TORSION  10  2  3 11               1.6839733      96.4845649
 131 TORSION  11  3  5 18              -1.6847045     -96.5264595
 132 TORSION  12  3  5 18               0.3977859      22.7914559
 133 TORSION  13  4  5 18               1.7225934      98.6973301
 134 TORSION  13  4 17 18              -2.0962991    -120.1090888
 135 TORSION  13  4 17 20              -0.1874568     -10.7404808
 136 TORSION  13  4 17 19               2.3012749     131.8533393
 137 TORSION  14  6  5 18               0.7392534      42.3560982
 138 TORSION  15  6  5 18              -1.3794899     -79.0389464
 139 TORSION  16  6  5 18               2.8296977     162.1297369
 140 TORSION  17  4  5 18               0.0326182       1.8688868

     ------------------------------------------
     THE POINT GROUP IS C1 , NAXIS= 0, ORDER= 1
     ------------------------------------------

     DIMENSIONS OF THE SYMMETRY SUBSPACES ARE
 A   =   48

 ..... DONE SETTING UP THE RUN .....
 STEP CPU TIME =     0.06 TOTAL CPU TIME =          0.1 (      0.0 MIN)
 TOTAL WALL CLOCK TIME=          0.1 SECONDS, CPU UTILIZATION IS    85.71%


          -----------------------------
          STATIONARY POINT LOCATION RUN
          -----------------------------

 OBTAINING INITIAL HESSIAN, HESS=CALC    

     ---------------------------------
     HESSIAN MATRIX CONTROL PARAMETERS
     ---------------------------------
     METHOD=ANALYTIC   NVIB  =       2   VIBSIZ= 0.01000
     RDHESS=       F   PURIFY=       F   PRTIFC=       F
     VIBANL=       F   DECOMP=       F   PROJCT=       F
     SCLFAC= 1.00000   PRTSCN=       F   NPRT  =       0
     PULCOR=       F   NPUN  =       0   REDOVB=       T
     HSSTYP=GENERAL 
 Old integral subroutine is used

     ------------------------------
     CPHF RESPONSE SOLUTION OPTIONS
     ------------------------------
     POLAR  =       F     NWORD  =       0
     CPHF   =AO      

          ********************
          1 ELECTRON INTEGRALS
          ********************
 ...... END OF ONE-ELECTRON INTEGRALS ......
 STEP CPU TIME =     0.02 TOTAL CPU TIME =          0.1 (      0.0 MIN)
 TOTAL WALL CLOCK TIME=          0.1 SECONDS, CPU UTILIZATION IS    88.89%

          -------------
          GUESS OPTIONS
          -------------
          GUESS =HUCKEL            NORB  =       0          NORDER=       0
          MIX   =       F          PRTMO =       F          PUNMO =       F
          TOLZ  = 1.0E-08          TOLE  = 1.0E-05
          SYMDEN=       F          PURIFY=       F

 INITIAL GUESS ORBITALS GENERATED BY HUCKEL   ROUTINE.
 HUCKEL GUESS REQUIRES     39252 WORDS.

 SYMMETRIES FOR INITIAL GUESS ORBITALS FOLLOW.   BOTH SET(S).
    27 ORBITALS ARE OCCUPIED (    7 CORE ORBITALS).
     8=A        9=A       10=A       11=A       12=A       13=A       14=A   
    15=A       16=A       17=A       18=A       19=A       20=A       21=A   
    22=A       23=A       24=A       25=A       26=A       27=A       28=A   
    29=A       30=A       31=A       32=A       33=A       34=A       35=A   
    36=A       37=A   
 ...... END OF INITIAL ORBITAL SELECTION ......
 STEP CPU TIME =     0.01 TOTAL CPU TIME =          0.1 (      0.0 MIN)
 TOTAL WALL CLOCK TIME=          0.1 SECONDS, CPU UTILIZATION IS    81.82%

                    ----------------------
                    AO INTEGRAL TECHNOLOGY
                    ----------------------
     S,P,L SHELL ROTATED AXIS INTEGRALS, REPROGRAMMED BY
        KAZUYA ISHIMURA (IMS) AND JOSE SIERRA (SYNSTAR).
     S,P,D,L SHELL ROTATED AXIS INTEGRALS PROGRAMMED BY
        KAZUYA ISHIMURA (INSTITUTE FOR MOLECULAR SCIENCE).
     S,P,D,F,G SHELL TO TOTAL QUARTET ANGULAR MOMENTUM SUM 5,
        ERIC PROGRAM BY GRAHAM FLETCHER (ELORET AND NASA ADVANCED
        SUPERCOMPUTING DIVISION, AMES RESEARCH CENTER).
     S,P,D,F,G,L SHELL GENERAL RYS QUADRATURE PROGRAMMED BY
        MICHEL DUPUIS (PACIFIC NORTHWEST NATIONAL LABORATORY).

          --------------------
          2 ELECTRON INTEGRALS
          --------------------

 THE -PK- OPTION IS OFF, THE INTEGRALS ARE NOT IN SUPERMATRIX FORM.
 STORING   15000 INTEGRALS/RECORD ON DISK, USING 12 BYTES/INTEGRAL.
 TWO ELECTRON INTEGRAL EVALUATION REQUIRES   89734 WORDS OF MEMORY.
 SCHWARZ INEQUALITY OVERHEAD:      1164 INTEGRALS, T=        0.00
 II,JST,KST,LST =  1  1  1  1 NREC =         1 INTLOC =    1
 II,JST,KST,LST =  2  1  1  1 NREC =         1 INTLOC =    2
 II,JST,KST,LST =  3  1  1  1 NREC =         1 INTLOC =   34
 II,JST,KST,LST =  4  1  1  1 NREC =         1 INTLOC =  139
 II,JST,KST,LST =  5  1  1  1 NREC =         1 INTLOC = 1356
 II,JST,KST,LST =  6  1  1  1 NREC =         1 INTLOC = 1927
 II,JST,KST,LST =  7  1  1  1 NREC =         1 INTLOC = 6786
 II,JST,KST,LST =  8  1  1  1 NREC =         1 INTLOC = 8469
 II,JST,KST,LST =  9  1  1  1 NREC =         2 INTLOC = 5892
 II,JST,KST,LST = 10  1  1  1 NREC =         2 INTLOC = 9794
 II,JST,KST,LST = 11  1  1  1 NREC =         4 INTLOC = 5205
 II,JST,KST,LST = 12  1  1  1 NREC =         4 INTLOC =11851
 II,JST,KST,LST = 13  1  1  1 NREC =         7 INTLOC =11043
 II,JST,KST,LST = 14  1  1  1 NREC =         8 INTLOC =10264
 II,JST,KST,LST = 15  1  1  1 NREC =         9 INTLOC =10982
 II,JST,KST,LST = 16  1  1  1 NREC =        10 INTLOC =13411
 II,JST,KST,LST = 17  1  1  1 NREC =        12 INTLOC = 2153
 II,JST,KST,LST = 18  1  1  1 NREC =        13 INTLOC = 8046
 II,JST,KST,LST = 19  1  1  1 NREC =        15 INTLOC =  814
 II,JST,KST,LST = 20  1  1  1 NREC =        16 INTLOC =10513
 II,JST,KST,LST = 21  1  1  1 NREC =        18 INTLOC = 6691
 II,JST,KST,LST = 22  1  1  1 NREC =        20 INTLOC = 4988
 II,JST,KST,LST = 23  1  1  1 NREC =        22 INTLOC = 6065
 II,JST,KST,LST = 24  1  1  1 NREC =        24 INTLOC = 3213
 II,JST,KST,LST = 25  1  1  1 NREC =        34 INTLOC =13599
 II,JST,KST,LST = 26  1  1  1 NREC =        38 INTLOC =  812
 II,JST,KST,LST = 27  1  1  1 NREC =        41 INTLOC = 6173
 SCHWARZ INEQUALITY TEST SKIPPED        7923 INTEGRAL BLOCKS.
 TOTAL NUMBER OF NONZERO TWO-ELECTRON INTEGRALS =              659036
         44 INTEGRAL RECORDS WERE STORED ON DISK FILE  8.
  ...... END OF TWO-ELECTRON INTEGRALS .....
 STEP CPU TIME =     0.19 TOTAL CPU TIME =          0.3 (      0.0 MIN)
 TOTAL WALL CLOCK TIME=          0.3 SECONDS, CPU UTILIZATION IS    93.33%

          --------------------------
                 RHF SCF CALCULATION
          --------------------------

     NUCLEAR ENERGY =       303.0192185987
     MAXIT =   30     NPUNCH=    2
     EXTRAP=T  DAMP=F  SHIFT=F  RSTRCT=F  DIIS=F  DEM=F  SOSCF=T
     DENSITY MATRIX CONV=  1.00E-05
     SOSCF WILL OPTIMIZE     567 ORBITAL ROTATIONS, SOGTOL=   0.250
     MEMORY REQUIRED FOR RHF ITERS=     49068 WORDS.

 ITER EX DEM     TOTAL ENERGY        E CHANGE  DENSITY CHANGE     ORB. GRAD
   1  0  0     -255.8132654163  -255.8132654163   0.324660930   0.000000000
          ---------------START SECOND ORDER SCF---------------
   2  1  0     -256.1497526293    -0.3364872130   0.113932949   0.022720009
   3  2  0     -256.1652818357    -0.0155292064   0.037295330   0.008583290
   4  3  0     -256.1674420002    -0.0021601645   0.004998085   0.001174627
   5  4  0     -256.1674927197    -0.0000507195   0.001593911   0.000356122
   6  5  0     -256.1674962079    -0.0000034881   0.000751034   0.000101435
   7  6  0     -256.1674968453    -0.0000006374   0.000274180   0.000040910
   8  7  0     -256.1674968957    -0.0000000504   0.000047561   0.000009412
   9  8  0     -256.1674969021    -0.0000000064   0.000011529   0.000003314
  10  9  0     -256.1674969025    -0.0000000004   0.000004058   0.000000711
  11 10  0     -256.1674969025    -0.0000000000   0.000001409   0.000000260

          -----------------
          DENSITY CONVERGED
          -----------------
     TIME TO FORM FOCK OPERATORS=       0.1 SECONDS (       0.0 SEC/ITER)
     TIME TO SOLVE SCF EQUATIONS=       0.0 SECONDS (       0.0 SEC/ITER)

 FINAL RHF ENERGY IS     -256.1674969025 AFTER  11 ITERATIONS

          ------------
          EIGENVECTORS
          ------------

                      1          2          3          4          5
                  -11.1076   -11.0642   -11.0609   -11.0529   -11.0508
                     A          A          A          A          A   
    1  C  1  S   -0.000532  -0.000188  -0.004313   0.988780   0.079108
    2  C  1  S    0.000110  -0.000037   0.000025   0.037642  -0.002543
    3  C  1  X    0.000035  -0.000004  -0.000078   0.000040   0.001722
    4  C  1  Y    0.000065   0.000029   0.000016  -0.000175   0.003502
    5  C  1  Z   -0.000041  -0.000032  -0.000149  -0.000137   0.001395
    6  C  2  S   -0.000623   0.000132  -0.015572  -0.078174   0.988771
    7  C  2  S    0.000104   0.000015  -0.006106  -0.008503   0.036493
    8  C  2  X   -0.000156   0.000020  -0.002349  -0.001545  -0.000223
    9  C  2  Y   -0.000112  -0.000009   0.003079  -0.003587  -0.000318
   10  C  2  Z    0.000052  -0.000019  -0.001466  -0.001320  -0.000452
   11  C  3  S   -0.002984  -0.002786   0.991830   0.003038   0.016871
   12  C  3  S   -0.005435   0.000048   0.037182   0.000632  -0.004944
   13  C  3  X   -0.003483   0.000065   0.000076  -0.000246   0.002487
   14  C  3  Y   -0.001811  -0.000083  -0.000149   0.000150  -0.002960
   15  C  3  Z   -0.000723  -0.000072   0.000030  -0.000250   0.001538
   16  C  4  S    0.002454  -0.000502  -0.001134  -0.005166  -0.002467
   17  C  4  S   -0.006452   0.000122   0.000115  -0.005971  -0.000487
   18  C  4  X   -0.000684   0.000089   0.000055   0.004033   0.000363
   19  C  4  Y    0.004342   0.000023   0.000021  -0.001058   0.000072
   20  C  4  Z    0.000353  -0.000051  -0.000037   0.000893   0.000160
   21  C  5  S    0.992313   0.003929   0.003979   0.000555   0.000810
   22  C  5  S    0.034510  -0.005499  -0.005440   0.000198   0.000060
   23  C  5  X   -0.000503  -0.003702   0.003624  -0.000011   0.000082
   24  C  5  Y    0.001799   0.001702   0.001958   0.000070  -0.000033
   25  C  5  Z   -0.000770   0.001408   0.000888  -0.000058   0.000086
   26  C  6  S   -0.002965   0.991947   0.002783   0.000209  -0.000077
   27  C  6  S   -0.005422   0.037760   0.000266  -0.000030  -0.000016
   28  C  6  X    0.003424   0.000153  -0.000074   0.000015   0.000008
   29  C  6  Y   -0.001732   0.000027  -0.000069  -0.000035   0.000008
   30  C  6  Z   -0.001178  -0.000204  -0.000011  -0.000012  -0.000031
   31  H  7  S    0.000027   0.000008   0.000041  -0.006957  -0.000472
   32  H  8  S   -0.000044  -0.000008  -0.000061  -0.006998  -0.000429
   33  H  9  S   -0.000010   0.000007   0.000191   0.000642  -0.007022
   34  H 10  S   -0.000098   0.000007   0.000232   0.000680  -0.006957
   35  H 11  S    0.000050  -0.000170  -0.007012  -0.000119   0.000007
   36  H 12  S    0.000035   0.000042  -0.006997  -0.000016  -0.000028
   37  H 13  S    0.000092  -0.000125  -0.000071   0.000142  -0.000035
   38  H 14  S    0.000029  -0.006949  -0.000080  -0.000005  -0.000015
   39  H 15  S    0.000035  -0.006982  -0.000069  -0.000020  -0.000000
   40  H 16  S   -0.000077  -0.006997  -0.000015   0.000006   0.000002
   41  B 17  S    0.000312  -0.000005   0.000002   0.000003  -0.000003
   42  B 17  S   -0.001988   0.000058   0.000039   0.000048   0.000017
   43  B 17  X   -0.000002  -0.000006   0.000037   0.000057  -0.000016
   44  B 17  Y    0.001145  -0.000032  -0.000019   0.000047  -0.000006
   45  B 17  Z    0.001967  -0.000028   0.000013  -0.000009  -0.000002
   46  H 18  S   -0.001203  -0.000206  -0.000038   0.000012  -0.000042
   47  H 19  S    0.000072  -0.000020   0.000010   0.000027  -0.000008
   48  H 20  S    0.000092   0.000048  -0.000036  -0.000050  -0.000001

                      6          7          8          9         10
                  -11.0284    -7.3791    -1.1034    -0.9850    -0.9316
                     A          A          A          A          A   
    1  C  1  S    0.006320   0.000018  -0.089435   0.098430   0.102723
    2  C  1  S   -0.005333   0.000120   0.234170  -0.273468  -0.295715
    3  C  1  X   -0.003932  -0.000054   0.027967   0.028954  -0.069507
    4  C  1  Y    0.001004   0.000136  -0.044911   0.036182  -0.033611
    5  C  1  Z   -0.000803  -0.000011  -0.001070   0.018280  -0.022278
    6  C  2  S    0.002129  -0.000006  -0.089476   0.116040  -0.068561
    7  C  2  S    0.000116   0.000056   0.233350  -0.323432   0.196672
    8  C  2  X   -0.000271   0.000013   0.044068  -0.014516   0.005844
    9  C  2  Y    0.000029  -0.000007   0.001904  -0.026328  -0.107678
   10  C  2  Z    0.000023   0.000027   0.023769  -0.011987   0.000099
   11  C  3  S    0.001275   0.000015  -0.102624   0.027858  -0.148168
   12  C  3  S    0.000149   0.000073   0.270800  -0.075647   0.428053
   13  C  3  X    0.000067   0.000000   0.024577   0.074081  -0.022478
   14  C  3  Y   -0.000155  -0.000173   0.050842  -0.029770  -0.014200
   15  C  3  Z   -0.000043   0.000014  -0.001385   0.023508  -0.016362
   16  C  4  S    0.992122   0.000459  -0.111958  -0.017566   0.129699
   17  C  4  S    0.035819  -0.002575   0.285704   0.049107  -0.366189
   18  C  4  X    0.000235  -0.000228  -0.026781   0.073904   0.026045
   19  C  4  Y   -0.001839   0.000096  -0.072168  -0.062524  -0.005751
   20  C  4  Z   -0.000274  -0.002537  -0.008306   0.012814   0.008523
   21  C  5  S   -0.001779   0.000398  -0.132740  -0.100891   0.002279
   22  C  5  S   -0.006768  -0.002216   0.354808   0.287923  -0.005143
   23  C  5  X    0.000563  -0.000160  -0.038780   0.093026  -0.044201
   24  C  5  Y   -0.004456  -0.000541   0.048432  -0.007373  -0.149807
   25  C  5  Z    0.000682  -0.002126  -0.021133  -0.020788  -0.024217
   26  C  6  S    0.000542   0.000002  -0.057617  -0.146053  -0.027122
   27  C  6  S    0.000244   0.000130   0.154374   0.408565   0.077818
   28  C  6  X   -0.000062   0.000051  -0.037668  -0.033614  -0.008258
   29  C  6  Y   -0.000050   0.000004   0.018964   0.021118  -0.019104
   30  C  6  Z    0.000010   0.000044   0.010727   0.010483  -0.004251
   31  H  7  S   -0.000085  -0.000349   0.043427  -0.067155  -0.080683
   32  H  8  S   -0.000030  -0.000061   0.042527  -0.068870  -0.086786
   33  H  9  S   -0.000029  -0.000017   0.046430  -0.081193   0.056840
   34  H 10  S   -0.000130   0.000001   0.041992  -0.081653   0.059680
   35  H 11  S   -0.000071  -0.000060   0.051714  -0.011947   0.132756
   36  H 12  S    0.000006  -0.000250   0.051373  -0.020016   0.121080
   37  H 13  S   -0.006795  -0.000163   0.052684   0.020128  -0.107972
   38  H 14  S   -0.000104   0.000104   0.028626   0.099345   0.031735
   39  H 15  S   -0.000022  -0.000311   0.029817   0.103491   0.012415
   40  H 16  S   -0.000085  -0.000041   0.032078   0.103838   0.022729
   41  B 17  S    0.000387   0.990871  -0.018081  -0.012194   0.018215
   42  B 17  S   -0.002555   0.036364   0.033897   0.025433  -0.037985
   43  B 17  X    0.000403  -0.000112  -0.002712   0.003887   0.002357
   44  B 17  Y   -0.001157   0.000636  -0.001096  -0.005487  -0.010528
   45  B 17  Z    0.002164  -0.000422  -0.018455  -0.012676   0.018790
   46  H 18  S    0.000080  -0.002513   0.013361   0.017847   0.004308
   47  H 19  S    0.000305  -0.006344   0.009199   0.002809  -0.011852
   48  H 20  S    0.000316  -0.006358   0.007464   0.008577  -0.012571

                     11         12         13         14         15
                   -0.8820    -0.7651    -0.6855    -0.6498    -0.6197
                     A          A          A          A          A   
    1  C  1  S   -0.085049   0.107580  -0.028385  -0.000044  -0.009449
    2  C  1  S    0.249477  -0.334380   0.090269   0.000838   0.028352
    3  C  1  X   -0.077639  -0.007707  -0.140327  -0.107253  -0.110647
    4  C  1  Y    0.001587  -0.137499  -0.050006   0.017821   0.228589
    5  C  1  Z   -0.034028  -0.047311  -0.008047   0.152024  -0.130480
    6  C  2  S   -0.082342  -0.122996  -0.004611  -0.006150   0.000991
    7  C  2  S    0.242596   0.384412   0.016011   0.019506  -0.008443
    8  C  2  X   -0.037473  -0.096246   0.017403  -0.146535  -0.136241
    9  C  2  Y    0.074867  -0.038219   0.133866  -0.016778   0.030069
   10  C  2  Z   -0.019038  -0.091723   0.021399   0.133665  -0.201737
   11  C  3  S    0.069582   0.082764   0.052874  -0.001459   0.006294
   12  C  3  S   -0.205017  -0.259568  -0.169603   0.004569  -0.022510
   13  C  3  X   -0.057091  -0.072282   0.173251  -0.118411   0.095865
   14  C  3  Y    0.012487   0.122211   0.152462  -0.040521  -0.202762
   15  C  3  Z   -0.036274  -0.061192   0.055517   0.173643  -0.092549
   16  C  4  S    0.071513  -0.041713   0.101325   0.015176   0.023090
   17  C  4  S   -0.203632   0.125131  -0.332202  -0.045779  -0.074310
   18  C  4  X   -0.045702   0.134203  -0.119848   0.024045   0.197700
   19  C  4  Y    0.083725  -0.096977  -0.241951   0.006892   0.095461
   20  C  4  Z   -0.021513   0.014183   0.041422   0.174520   0.003633
   21  C  5  S    0.068207  -0.023881  -0.117487   0.016033  -0.049306
   22  C  5  S   -0.207105   0.073406   0.399124  -0.050813   0.181234
   23  C  5  X    0.139179   0.075981  -0.043442   0.037568   0.206827
   24  C  5  Y   -0.098332   0.164930  -0.063324   0.012846  -0.142960
   25  C  5  Z   -0.026957   0.014594   0.003428   0.188659  -0.003786
   26  C  6  S   -0.146607   0.012406   0.026076  -0.005239   0.025921
   27  C  6  S    0.428700  -0.038694  -0.081049   0.017216  -0.085077
   28  C  6  X    0.054168  -0.000160  -0.152806   0.082978  -0.219782
   29  C  6  Y   -0.026404   0.058549   0.024457  -0.015719   0.072711
   30  C  6  Z   -0.022319   0.014904   0.061853   0.102870   0.122143
   31  H  7  S    0.080233  -0.161792   0.065649   0.136273   0.033881
   32  H  8  S    0.090193  -0.154303   0.014828  -0.066375   0.213110
   33  H  9  S    0.081994   0.186885  -0.011653  -0.096712   0.155351
   34  H 10  S    0.084717   0.175036  -0.012183   0.140376   0.048435
   35  H 11  S   -0.055106  -0.127710  -0.153839  -0.075509   0.163878
   36  H 12  S   -0.067532  -0.130021  -0.121433   0.158957  -0.032644
   37  H 13  S   -0.054638   0.068401  -0.310123  -0.025284   0.116805
   38  H 14  S    0.139521  -0.048866  -0.045327   0.035954  -0.072573
   39  H 15  S    0.137589   0.008753  -0.092066   0.087059  -0.095593
   40  H 16  S    0.138989  -0.017346  -0.080743  -0.070150  -0.131839
   41  B 17  S    0.022811  -0.018805  -0.005633  -0.149861  -0.042681
   42  B 17  S   -0.049376   0.042100   0.015337   0.373588   0.109072
   43  B 17  X    0.005163   0.012581  -0.012565  -0.010024   0.045419
   44  B 17  Y   -0.000447   0.005068  -0.036951   0.017783  -0.002156
   45  B 17  Z    0.022547  -0.018187  -0.004924   0.001732   0.008163
   46  H 18  S   -0.010778  -0.004441   0.045696   0.091778   0.057346
   47  H 19  S   -0.015599   0.004955   0.009553   0.205512   0.029597
   48  H 20  S   -0.012842   0.023855  -0.013045   0.192115   0.087552

                     16         17         18         19         20
                   -0.5920    -0.5567    -0.5549    -0.5322    -0.4911
                     A          A          A          A          A   
    1  C  1  S    0.002694  -0.011038  -0.011385   0.005877  -0.010113
    2  C  1  S   -0.008408   0.036389   0.039558  -0.020572   0.042335
    3  C  1  X    0.141059  -0.097419   0.021434   0.046590  -0.027562
    4  C  1  Y   -0.056899   0.046600   0.025076   0.034197  -0.187432
    5  C  1  Z   -0.107873   0.063953  -0.207123  -0.338864  -0.037650
    6  C  2  S   -0.000827   0.012129   0.008561  -0.000970  -0.025226
    7  C  2  S    0.004459  -0.041897  -0.028198   0.002784   0.102862
    8  C  2  X    0.225032   0.049360   0.138564  -0.033089   0.227576
    9  C  2  Y    0.007442  -0.030258   0.031080   0.097233   0.023697
[...]
 18   H            X  0.00028551 -0.00481753 -0.14431836  0.02610838 -0.00855765
                   Y  0.00525827 -0.00096446  0.93452036 -0.16710946  0.00038123
                   Z -0.00250722 -0.00773534 -0.06306612  0.01791008  0.00082858
 19   H            X  0.00520602 -0.00255129  0.12439361  0.58834674  0.58167825
                   Y -0.00319838 -0.00099769 -0.03983577 -0.09785075 -0.09738687
                   Z  0.00438729  0.00078203 -0.05577841 -0.30922841 -0.29941079
 20   H            X -0.00222510  0.00123516 -0.11588210 -0.56798174  0.55540003
                   Y -0.00750549  0.00519429 -0.07586214 -0.27411443  0.26817804
                   Z  0.00932886 -0.00855242 -0.04298761 -0.23982446  0.22868499

 TRANS. SAYVETZ    X -0.00000001 -0.00000034  0.00000071  0.00000010 -0.00000007
                   Y  0.00000005 -0.00000006  0.00000105 -0.00000019 -0.00000000
                   Z  0.00000008  0.00000032  0.00000007 -0.00000036 -0.00000007
               TOTAL  0.00000010  0.00000047  0.00000127  0.00000043  0.00000010

   ROT. SAYVETZ    X -0.00011670  0.00006737 -0.00009200 -0.00001927 -0.00000648
                   Y  0.00022090 -0.00034684 -0.00000464  0.00004709 -0.00002940
                   Z  0.00005579 -0.00000716  0.00004071 -0.00005627 -0.00001865
               TOTAL  0.00025598  0.00035340  0.00010072  0.00007586  0.00003542

                           51          52          53          54          55
       FREQUENCY:      3572.49     3618.73     3623.32     3628.90     3734.87  
        SYMMETRY:         A           A           A           A           A   
    REDUCED MASS:      1.03885     1.06587     1.06669     1.06997     1.11235
    IR INTENSITY:      0.00986     0.03121     0.04688     0.04143     0.00894

  1   C            X -0.00003760 -0.02291314 -0.01322089 -0.00808635  0.02872952
                   Y  0.00009982  0.05167858  0.03424585  0.02141828  0.01053493
                   Z -0.00000775 -0.00451726 -0.00090112  0.00007082 -0.07730713
  2   C            X -0.00008286  0.03265528 -0.03145597 -0.03293886 -0.02180458
                   Y -0.00001786  0.00217330 -0.00669316 -0.00286297 -0.00305326
                   Z -0.00003441  0.02425987 -0.02429454 -0.02693597  0.02956377
  3   C            X -0.00014081 -0.00261543  0.00853415 -0.00818973  0.00254194
                   Y  0.00003198 -0.00802281  0.04439016 -0.05347808 -0.00143723
                   Z -0.00001324 -0.00108287  0.00031106  0.00279096 -0.00778804
  4   C            X -0.00003054  0.00035300 -0.00009767 -0.00017467 -0.01027764
                   Y  0.00028151 -0.00229955 -0.00144017 -0.00111367 -0.00950373
                   Z  0.00011363  0.00046734  0.00041306  0.00049124  0.00331330
  5   C            X -0.00245477  0.00045227 -0.00086969  0.00185903  0.00000430
                   Y  0.00117447  0.00030350 -0.00104744  0.00079729  0.00086929
                   Z  0.00026423  0.00009683 -0.00001297  0.00030141  0.00011869
  6   C            X  0.04205812 -0.00005670 -0.00010043 -0.00005841  0.00019170
                   Y -0.02176789 -0.00004084  0.00001434  0.00009842  0.00011025
                   Z -0.02159624  0.00002785 -0.00016409  0.00026096  0.00013499
  7   H            X  0.00072219  0.24919274  0.16306383  0.10113408 -0.32564833
                   Y -0.00048532 -0.18739026 -0.12015323 -0.07378033  0.24745028
                   Z -0.00107874 -0.39125521 -0.25371905 -0.15652519  0.50120335
  8   H            X -0.00017559 -0.00551484 -0.00456431 -0.00261288 -0.00324807
                   Y -0.00056247 -0.39706261 -0.24783539 -0.14649626 -0.37291288
                   Z  0.00069759  0.43804775  0.27485951  0.16364364  0.40661613
  9   H            X -0.00000361 -0.02350164  0.02274304  0.02204335 -0.01229985
                   Y  0.00004142 -0.00025762 -0.00409414 -0.00009023  0.00256674
                   Z  0.00081134 -0.42068183  0.40981737  0.43163098 -0.23183943
 10   H            X  0.00101940 -0.34486324  0.32937422  0.32704766  0.26407574
                   Y  0.00015017 -0.04646332  0.04477373  0.04399637  0.03471979
                   Z -0.00048149  0.14236228 -0.13692349 -0.13773434 -0.10670818
 11   H            X -0.00020974 -0.01103923  0.06138231 -0.07017796 -0.00731676
                   Y  0.00075894  0.06255549 -0.31956529  0.35891348  0.04069775
                   Z  0.00082906  0.06592697 -0.33909235  0.38357671  0.04298450
 12   H            X  0.00033947  0.02482881 -0.14094619  0.17134193 -0.02015085
                   Y  0.00028082  0.03481569 -0.18696053  0.22215440 -0.02527968
                   Z -0.00011914 -0.06236213  0.34112126 -0.40776556  0.04635422
 13   H            X -0.00240011  0.01422850  0.01220284  0.01368571  0.11495929
                   Y -0.00239603  0.01361365  0.01006361  0.01258495  0.10086951
                   Z  0.00063388 -0.00276407 -0.00264040 -0.00338758 -0.03401622
 14   H            X -0.02075683  0.00006979  0.00012652 -0.00019833  0.00001141
                   Y  0.51034576 -0.00023452 -0.00085092 -0.00059561  0.00007132
                   Z -0.17922942 -0.00006755  0.00031940  0.00016090 -0.00002539
 15   H            X -0.39397378  0.00009158  0.00083640 -0.00009496 -0.00207740
                   Y -0.26825297  0.00025050  0.00048700  0.00014671 -0.00139735
                   Z -0.20183705  0.00019982  0.00027827  0.00014369 -0.00102872
 16   H            X -0.05059396  0.00004313 -0.00002587  0.00026168  0.00015666
                   Y -0.00092215 -0.00001279 -0.00010149  0.00008846 -0.00003313
                   Z  0.62958250 -0.00039555  0.00023338 -0.00234967 -0.00113221
 17   B            X -0.00012799  0.00005656 -0.00018930  0.00034293  0.00023600
                   Y -0.00012376 -0.00008736  0.00015729 -0.00031838  0.00020108
                   Z  0.00002550  0.00022858  0.00014165  0.00012807 -0.00033875
 18   H            X -0.00109780  0.00044503 -0.00097627  0.00149513 -0.00029760
                   Y  0.00234481 -0.00003736 -0.00400428  0.00462748 -0.00014722
                   Z  0.00253107 -0.00036969 -0.00137435  0.00118275 -0.00057478
 19   H            X -0.00053727  0.00166954  0.00243176 -0.00105361 -0.00293734
                   Y  0.00004886 -0.00044430 -0.00037313 -0.00001866  0.00099977
                   Z  0.00031403 -0.00019181 -0.00056577  0.00028787  0.00055701
 20   H            X  0.00099027 -0.00003766 -0.00052124  0.00001590 -0.00048492
                   Y  0.00049394  0.00019567 -0.00026674  0.00036186 -0.00027556
                   Z  0.00037084 -0.00017305 -0.00037382 -0.00016050  0.00004144

 TRANS. SAYVETZ    X  0.00000011 -0.00000006 -0.00000001 -0.00000006  0.00000009
                   Y -0.00000006 -0.00000006 -0.00000010 -0.00000002  0.00000006
                   Z -0.00000021  0.00000032  0.00000075  0.00000061 -0.00000020
               TOTAL  0.00000025  0.00000033  0.00000076  0.00000061  0.00000023

   ROT. SAYVETZ    X  0.00015949  0.00044698  0.00111348 -0.00036629 -0.00002660
                   Y -0.00008717  0.00123377 -0.00068863 -0.00035718 -0.00011860
                   Z -0.00005111  0.00027890  0.00041609 -0.00015855  0.00006563
               TOTAL  0.00018880  0.00134155  0.00137375  0.00053562  0.00013813

                           56          57          58          59          60
       FREQUENCY:      3738.01     3740.13     3745.20     3745.76     3770.92  
        SYMMETRY:         A           A           A           A           A   
    REDUCED MASS:      1.09706     1.11191     1.10869     1.10816     1.11072
    IR INTENSITY:      0.14801     0.04922     0.01263     0.02129     0.03373

  1   C            X -0.00219313 -0.00963085 -0.00693286  0.00373981  0.00005489
                   Y -0.00403109 -0.00234561 -0.00221669  0.00138560  0.00004220
                   Z  0.01609564  0.02505037  0.01900752 -0.01084928 -0.00006395
  2   C            X  0.00187911 -0.03050204 -0.03361829  0.01783142  0.00000256
                   Y  0.00032029 -0.00438041 -0.00493571  0.00262506  0.00002733
                   Z -0.00073152  0.04152793  0.04814015 -0.02575408 -0.00002250
  3   C            X  0.00227754  0.02123679 -0.01433654  0.00935336  0.00065967
                   Y  0.00011505 -0.00785276  0.00420490 -0.00307611 -0.00025458
                   Z -0.00724842 -0.06706002  0.04583364 -0.02958555 -0.00134506
  4   C            X -0.06070382  0.00686309  0.00077413  0.00330900 -0.00036661
                   Y -0.05525634  0.00616692  0.00063489  0.00282355  0.00001637
                   Z  0.01679927 -0.00200133 -0.00021484 -0.00088393  0.00013910
  5   C            X -0.00039381  0.00009738  0.00059279  0.00048115  0.00025845
                   Y  0.00401302 -0.00048332 -0.00043528 -0.00061370  0.00019206
                   Z  0.00101947  0.00025762 -0.00023240 -0.00052423 -0.00004753
  6   C            X -0.00041335  0.00122286 -0.00982024 -0.01607328 -0.04483425
                   Y  0.00134119 -0.00042997  0.01340542  0.02442776 -0.07854750
                   Z -0.00394179  0.00386446 -0.04229085 -0.07257648 -0.01566534
  7   H            X  0.05615948  0.11002449  0.08243964 -0.04590495 -0.00031270
                   Y -0.04339808 -0.08598772 -0.06531951  0.03638548  0.00026560
                   Z -0.08556038 -0.17069926 -0.12815219  0.07149787  0.00049170
  8   H            X -0.00149989  0.00189672  0.00144136 -0.00074020 -0.00006091
                   Y  0.08917120  0.11842704  0.09234360 -0.05317357 -0.00028627
                   Z -0.09700182 -0.12814148 -0.09982706  0.05752285  0.00033663
  9   H            X  0.00011112 -0.01898457 -0.02689571  0.01466050  0.00009927
                   Y -0.00087814 -0.00242901  0.00112199 -0.00071464 -0.00005087
                   Z  0.00339799 -0.33528294 -0.40493512  0.21763733  0.00056224
 10   H            X -0.01572377  0.37192905  0.41920448 -0.22304669  0.00009268
                   Y -0.00173386  0.05202140  0.05670450 -0.03013695  0.00002462
                   Z  0.00663905 -0.14988258 -0.16882918  0.08982839  0.00000050
 11   H            X -0.00602212 -0.06319408  0.04361492 -0.02830631 -0.00107093
                   Y  0.03214353  0.33576053 -0.22575053  0.14760266  0.00629961
                   Z  0.03413308  0.35204823 -0.23622826  0.15440840  0.00665277
 12   H            X -0.02069876 -0.18344636  0.12788751 -0.08220588 -0.00282773
                   Y -0.02821017 -0.24403252  0.17548966 -0.11202292 -0.00410543
                   Z  0.05031272  0.43534130 -0.30816136  0.19725050  0.00788636
 13   H            X  0.68736469 -0.07462951 -0.00652472 -0.03636672  0.00169007
                   Y  0.59423798 -0.06501085 -0.00624374 -0.03098267  0.00165059
                   Z -0.20124360  0.02151038  0.00271981  0.01055582 -0.00059911
 14   H            X  0.00139756 -0.00063451  0.00890841  0.01573195 -0.02109992
                   Y -0.02361265  0.01565921 -0.24556310 -0.43313457  0.55328518
                   Z  0.00745821 -0.00514852  0.08307589  0.14682104 -0.19413611
 15   H            X  0.00839754 -0.01648259  0.13046385  0.21376870  0.55805824
                   Y  0.00565292 -0.01085031  0.08950520  0.14756171  0.38093216
                   Z  0.00406172 -0.00800845  0.06420552  0.10556512  0.28600152
 16   H            X -0.00270820  0.00244663 -0.02735003 -0.04741439 -0.00888732
                   Y -0.00007652  0.00011381  0.00004734  0.00047002 -0.00375976
                   Z  0.03449672 -0.03272014  0.35706057  0.61306560  0.09496231
 17   B            X -0.00030702 -0.00016628 -0.00010006 -0.00000426  0.00011674
                   Y  0.00128846  0.00013090 -0.00016989  0.00006069 -0.00008260
                   Z -0.00089272  0.00015426  0.00015697  0.00017668  0.00002281
 18   H            X  0.00084073 -0.00088003  0.00043185 -0.00106882 -0.00023665
                   Y -0.00234020 -0.00340819  0.00235126 -0.00063100  0.00172436
                   Z -0.00832117  0.00020484  0.00108625  0.00251942  0.00040980
 19   H            X  0.00127884  0.00187156  0.00071395  0.00000595  0.00020096
                   Y  0.00123886 -0.00047448 -0.00011945  0.00014454  0.00002260
                   Z -0.00102227 -0.00045743  0.00001122  0.00045336 -0.00012203
 20   H            X  0.00347842 -0.00054545  0.00094816 -0.00102726 -0.00033742
                   Y  0.00072067 -0.00018589  0.00039156 -0.00032794 -0.00012683
                   Z  0.00053908  0.00003540 -0.00011480 -0.00003329 -0.00021675

 TRANS. SAYVETZ    X  0.00000037 -0.00000005 -0.00000010  0.00000000  0.00000000
                   Y  0.00000031 -0.00000004  0.00000006  0.00000003 -0.00000008
                   Z  0.00000000  0.00000004  0.00000006 -0.00000008 -0.00000004
               TOTAL  0.00000048  0.00000007  0.00000013  0.00000009  0.00000009

   ROT. SAYVETZ    X  0.00008967  0.00008182 -0.00001665 -0.00000284 -0.00000447
                   Y -0.00008409 -0.00007103 -0.00005160  0.00003305  0.00004912
                   Z  0.00004409 -0.00011634  0.00004944  0.00001537  0.00001491
               TOTAL  0.00013060  0.00015898  0.00007337  0.00003656  0.00005153

 REFERENCE ON SAYVETZ CONDITIONS - A. SAYVETZ, J.CHEM.PHYS., 7, 383-389(1939).

 NOTE - THE MODES J,K ARE ORTHONORMALIZED ACCORDING TO
 SUM ON I   M(I) * (X(I,J)*X(I,K) + Y(I,J)*Y(I,K) + Z(I,J)*Z(I,K)) = DELTA(J,K)

  MODE FREQ(CM**-1)  SYMMETRY  RED. MASS  IR INTENS.
     1     714.905    A        1.846523    3.916734
     2      42.892    A        1.726516    0.029624
     3       3.941    A        3.059126    0.030097
     4       2.317    A        2.871210    0.099044
     5       0.171    A        4.714647    0.000558
     6       0.011    A        4.806131    0.000000
     7       0.074    A        4.808179    0.000118
     8       1.777    A        3.013413    0.055525
     9     211.712    A        1.872848    0.108815
    10     228.075    A        1.048911    0.006013
    11     324.653    A        2.145943    0.104123
    12     366.933    A        2.238837    0.190327
    13     444.045    A        2.272113    0.203630
    14     552.444    A        1.714679    0.303266
    15     600.823    A        1.931673    0.644819
    16     716.351    A        3.494999    0.357048
    17     759.838    A        2.169423    0.025204
    18     884.042    A        1.868282    0.032493
    19     922.222    A        1.790810    0.050557
    20    1002.741    A        1.978041    0.067814
    21    1025.438    A        1.541579    0.040268
    22    1065.574    A        1.466308    0.161770
    23    1094.744    A        2.186459    0.048448
    24    1133.404    A        1.682594    0.013275
    25    1173.850    A        1.412648    0.010455
    26    1216.843    A        1.354572    0.394721
    27    1244.768    A        1.359051    0.833974
    28    1271.059    A        1.600027    0.064764
    29    1324.226    A        1.862523    0.113270
    30    1370.469    A        1.337678    0.333352
    31    1416.758    A        1.530347    0.300197
    32    1455.014    A        1.161859    2.821218
    33    1475.053    A        1.214520    0.002249
    34    1495.968    A        1.190819    0.017000
    35    1510.585    A        1.423882    0.025221
    36    1529.724    A        1.104071    0.592625
    37    1550.606    A        1.075354    0.031636
    38    1606.243    A        1.924442    0.029830
    39    1623.053    A        1.912413    0.078314
    40    1636.921    A        1.627719    0.041759
    41    1708.109    A        1.294565    0.035036
    42    1774.939    A        2.136871    0.231950
    43    1797.854    A        1.091078    0.004384
    44    1800.387    A        1.084531    0.093195
    45    1810.643    A        1.337190    0.034171
    46    1821.830    A        1.105761    0.006559
    47    1839.501    A        1.116900    0.005650
    48    2893.193    A        1.058831    0.822089
    49    3156.719    A        1.062974    0.462414
    50    3310.265    A        1.134512    0.459251
    51    3572.486    A        1.038848    0.009859
    52    3618.730    A        1.065868    0.031208
    53    3623.317    A        1.066692    0.046876
    54    3628.902    A        1.069967    0.041431
    55    3734.867    A        1.112351    0.008939
    56    3738.010    A        1.097057    0.148014
    57    3740.131    A        1.111907    0.049222
    58    3745.204    A        1.108691    0.012630
    59    3745.759    A        1.108161    0.021292
    60    3770.924    A        1.110722    0.033728

     -------------------------------
     THERMOCHEMISTRY AT T=  298.15 K
     -------------------------------

 USING IDEAL GAS, RIGID ROTOR, HARMONIC NORMAL MODE APPROXIMATIONS.
 P=  1.01325E+05 PASCAL.
 ALL FREQUENCIES ARE SCALED BY   1.00000
 THE MOMENTS OF INERTIA ARE (IN AMU*BOHR**2)
            478.47413           733.88540           928.56826
 THE ROTATIONAL SYMMETRY NUMBER IS  1.0
 THE ROTATIONAL CONSTANTS ARE (IN GHZ)
      3.76841     2.45691     1.94179
   2 IMAGINARY FREQUENCY VIBRATION(S) IS(ARE) EXCLUDED
     FROM THE FOLLOWING THERMOCHEMICAL ANALYSIS.
      9 -     60 VIBRATIONAL MODES ARE USED IN THERMOCHEMISTRY.
 THE HARMONIC ZERO POINT ENERGY IS (SCALED BY   1.000)
        0.212020 HARTREE/MOLECULE    46532.976851 CM**-1/MOLECULE 
      133.044591 KCAL/MOL              556.658567 KJ/MOL

               Q               LN Q
 ELEC.     1.00000E+00       0.000000
 TRANS.    3.70351E+07      17.427377
 ROT.      2.04405E+05      12.227859
 VIB.      5.26333E+00       1.660764
 TOT.      3.98443E+13      31.316000

              E         H         G         CV        CP        S
           KJ/MOL    KJ/MOL    KJ/MOL   J/MOL-K   J/MOL-K   J/MOL-K
 ELEC.      0.000     0.000     0.000     0.000     0.000     0.000
 TRANS.     3.718     6.197   -43.201    12.472    20.786   165.684
 ROT.       3.718     3.718   -30.312    12.472    12.472   114.139
 VIB.     564.521   564.521   552.542    68.184    68.184    40.180
 TOTAL    571.958   574.437   479.028    93.127   101.442   320.003
 VIB. THERMAL CORRECTION E(T)-E(0) = H(T)-H(0) =      7862.695 J/MOL

              E         H         G         CV        CP        S
         KCAL/MOL  KCAL/MOL  KCAL/MOL CAL/MOL-K CAL/MOL-K CAL/MOL-K
 ELEC.      0.000     0.000     0.000     0.000     0.000     0.000
 TRANS.     0.889     1.481   -10.325     2.981     4.968    39.600
 ROT.       0.889     0.889    -7.245     2.981     2.981    27.280
 VIB.     134.924   134.924   132.061    16.296    16.296     9.603
 TOTAL    136.701   137.294   114.490    22.258    24.245    76.483
 VIB. THERMAL CORRECTION E(T)-E(0) = H(T)-H(0) =      1879.229 CAL/MOL
 ......END OF NORMAL COORDINATE ANALYSIS......
 STEP CPU TIME =     0.01 TOTAL CPU TIME =         76.9 (      1.3 MIN)
 TOTAL WALL CLOCK TIME=         78.6 SECONDS, CPU UTILIZATION IS    97.77%
               580000  WORDS OF DYNAMIC MEMORY USED
 EXECUTION OF GAMESS TERMINATED NORMALLY Sat Nov 13 22:24:40 2021
 DDI: 263640 bytes (0.3 MB / 0 MWords) used by master data server.

 ----------------------------------------
 CPU timing information for all processes
 ========================================
 0: 75.665 + 1.200 = 76.866
 ----------------------------------------
 ddikick.x: exited gracefully.
----- accounting info -----
Files used on the master node chemcompute-node-0.novalocal were:
-rw-r--r--. 1 chemcomp chemcomp     1554 Nov 13 22:23 /scratch/306221/342123.F05
-rw-rw-r--. 1 chemcomp chemcomp  8100720 Nov 13 22:24 /scratch/306221/342123.F08
-rw-rw-r--. 1 chemcomp chemcomp 85196800 Nov 13 22:24 /scratch/306221/342123.F10
-rw-rw-r--. 1 chemcomp chemcomp   564960 Nov 13 22:24 /scratch/306221/342123.F18
Sat Nov 13 22:24:43 UTC 2021
0.141u 0.098s 1:22.23 0.2%	0+0k 8+224io 0pf+0w
Finishing Up...
Looking for IR data...
Looking for Raman data...
vibramans not found
Looking for thermodynamics data...
Looking for UV-Vis data...
306221
